First iteration of the aluminum strip pull input file. Still using SMD input format.
1241 atoms
2 atom types
-10.100000 10.100000 xlo xhi
-10.100000 10.100000 ylo yhi
-0.500000 0.500000 zlo zhi

Atoms # otm

1 1 1 1.00000 1.00000e+00 2.01000 1.00500 -10.00000 -10.00000 0.00000 -10.00000 -10.00000 0.00000
2 1 1 1.00000 1.00000e+00 2.01000 1.00500 -10.00000 -9.00000 0.00000 -10.00000 -9.00000 0.00000
3 1 1 1.00000 1.00000e+00 2.01000 1.00500 -10.00000 -8.00000 0.00000 -10.00000 -8.00000 0.00000
4 1 1 1.00000 1.00000e+00 2.01000 1.00500 -10.00000 -7.00000 0.00000 -10.00000 -7.00000 0.00000
5 1 1 1.00000 1.00000e+00 2.01000 1.00500 -10.00000 -6.00000 0.00000 -10.00000 -6.00000 0.00000
6 1 1 1.00000 1.00000e+00 2.01000 1.00500 -10.00000 -5.00000 0.00000 -10.00000 -5.00000 0.00000
7 1 1 1.00000 1.00000e+00 2.01000 1.00500 -10.00000 -4.00000 0.00000 -10.00000 -4.00000 0.00000
8 1 1 1.00000 1.00000e+00 2.01000 1.00500 -10.00000 -3.00000 0.00000 -10.00000 -3.00000 0.00000
9 1 1 1.00000 1.00000e+00 2.01000 1.00500 -10.00000 -2.00000 0.00000 -10.00000 -2.00000 0.00000
10 1 1 1.00000 1.00000e+00 2.01000 1.00500 -10.00000 -1.00000 0.00000 -10.00000 -1.00000 0.00000
11 1 1 1.00000 1.00000e+00 2.01000 1.00500 -10.00000 0.00000 0.00000 -10.00000 0.00000 0.00000
12 1 1 1.00000 1.00000e+00 2.01000 1.00500 -10.00000 1.00000 0.00000 -10.00000 1.00000 0.00000
13 1 1 1.00000 1.00000e+00 2.01000 1.00500 -10.00000 2.00000 0.00000 -10.00000 2.00000 0.00000
14 1 1 1.00000 1.00000e+00 2.01000 1.00500 -10.00000 3.00000 0.00000 -10.00000 3.00000 0.00000
15 1 1 1.00000 1.00000e+00 2.01000 1.00500 -10.00000 4.00000 0.00000 -10.00000 4.00000 0.00000
16 1 1 1.00000 1.00000e+00 2.01000 1.00500 -10.00000 5.00000 0.00000 -10.00000 5.00000 0.00000
17 1 1 1.00000 1.00000e+00 2.01000 1.00500 -10.00000 6.00000 0.00000 -10.00000 6.00000 0.00000
18 1 1 1.00000 1.00000e+00 2.01000 1.00500 -10.00000 7.00000 0.00000 -10.00000 7.00000 0.00000
19 1 1 1.00000 1.00000e+00 2.01000 1.00500 -10.00000 8.00000 0.00000 -10.00000 8.00000 0.00000
20 1 1 1.00000 1.00000e+00 2.01000 1.00500 -10.00000 9.00000 0.00000 -10.00000 9.00000 0.00000
21 1 1 1.00000 1.00000e+00 2.01000 1.00500 -10.00000 10.00000 0.00000 -10.00000 10.00000 0.00000
22 1 1 1.00000 1.00000e+00 2.01000 1.00500 -9.00000 -10.00000 0.00000 -9.00000 -10.00000 0.00000
23 1 1 1.00000 1.00000e+00 2.01000 1.00500 -9.00000 -9.00000 0.00000 -9.00000 -9.00000 0.00000
24 1 1 1.00000 1.00000e+00 2.01000 1.00500 -9.00000 -8.00000 0.00000 -9.00000 -8.00000 0.00000
25 1 1 1.00000 1.00000e+00 2.01000 1.00500 -9.00000 -7.00000 0.00000 -9.00000 -7.00000 0.00000
26 1 1 1.00000 1.00000e+00 2.01000 1.00500 -9.00000 -6.00000 0.00000 -9.00000 -6.00000 0.00000
27 1 1 1.00000 1.00000e+00 2.01000 1.00500 -9.00000 -5.00000 0.00000 -9.00000 -5.00000 0.00000
28 1 1 1.00000 1.00000e+00 2.01000 1.00500 -9.00000 -4.00000 0.00000 -9.00000 -4.00000 0.00000
29 1 1 1.00000 1.00000e+00 2.01000 1.00500 -9.00000 -3.00000 0.00000 -9.00000 -3.00000 0.00000
30 1 1 1.00000 1.00000e+00 2.01000 1.00500 -9.00000 -2.00000 0.00000 -9.00000 -2.00000 0.00000
31 1 1 1.00000 1.00000e+00 2.01000 1.00500 -9.00000 -1.00000 0.00000 -9.00000 -1.00000 0.00000
32 1 1 1.00000 1.00000e+00 2.01000 1.00500 -9.00000 0.00000 0.00000 -9.00000 0.00000 0.00000
33 1 1 1.00000 1.00000e+00 2.01000 1.00500 -9.00000 1.00000 0.00000 -9.00000 1.00000 0.00000
34 1 1 1.00000 1.00000e+00 2.01000 1.00500 -9.00000 2.00000 0.00000 -9.00000 2.00000 0.00000
35 1 1 1.00000 1.00000e+00 2.01000 1.00500 -9.00000 3.00000 0.00000 -9.00000 3.00000 0.00000
36 1 1 1.00000 1.00000e+00 2.01000 1.00500 -9.00000 4.00000 0.00000 -9.00000 4.00000 0.00000
37 1 1 1.00000 1.00000e+00 2.01000 1.00500 -9.00000 5.00000 0.00000 -9.00000 5.00000 0.00000
38 1 1 1.00000 1.00000e+00 2.01000 1.00500 -9.00000 6.00000 0.00000 -9.00000 6.00000 0.00000
39 1 1 1.00000 1.00000e+00 2.01000 1.00500 -9.00000 7.00000 0.00000 -9.00000 7.00000 0.00000
40 1 1 1.00000 1.00000e+00 2.01000 1.00500 -9.00000 8.00000 0.00000 -9.00000 8.00000 0.00000
41 1 1 1.00000 1.00000e+00 2.01000 1.00500 -9.00000 9.00000 0.00000 -9.00000 9.00000 0.00000
42 1 1 1.00000 1.00000e+00 2.01000 1.00500 -9.00000 10.00000 0.00000 -9.00000 10.00000 0.00000
43 1 1 1.00000 1.00000e+00 2.01000 1.00500 -8.00000 -10.00000 0.00000 -8.00000 -10.00000 0.00000
44 1 1 1.00000 1.00000e+00 2.01000 1.00500 -8.00000 -9.00000 0.00000 -8.00000 -9.00000 0.00000
45 1 1 1.00000 1.00000e+00 2.01000 1.00500 -8.00000 -8.00000 0.00000 -8.00000 -8.00000 0.00000
46 1 1 1.00000 1.00000e+00 2.01000 1.00500 -8.00000 -7.00000 0.00000 -8.00000 -7.00000 0.00000
47 1 1 1.00000 1.00000e+00 2.01000 1.00500 -8.00000 -6.00000 0.00000 -8.00000 -6.00000 0.00000
48 1 1 1.00000 1.00000e+00 2.01000 1.00500 -8.00000 -5.00000 0.00000 -8.00000 -5.00000 0.00000
49 1 1 1.00000 1.00000e+00 2.01000 1.00500 -8.00000 -4.00000 0.00000 -8.00000 -4.00000 0.00000
50 1 1 1.00000 1.00000e+00 2.01000 1.00500 -8.00000 -3.00000 0.00000 -8.00000 -3.00000 0.00000
51 1 1 1.00000 1.00000e+00 2.01000 1.00500 -8.00000 -2.00000 0.00000 -8.00000 -2.00000 0.00000
52 1 1 1.00000 1.00000e+00 2.01000 1.00500 -8.00000 -1.00000 0.00000 -8.00000 -1.00000 0.00000
53 1 1 1.00000 1.00000e+00 2.01000 1.00500 -8.00000 0.00000 0.00000 -8.00000 0.00000 0.00000
54 1 1 1.00000 1.00000e+00 2.01000 1.00500 -8.00000 1.00000 0.00000 -8.00000 1.00000 0.00000
55 1 1 1.00000 1.00000e+00 2.01000 1.00500 -8.00000 2.00000 0.00000 -8.00000 2.00000 0.00000
56 1 1 1.00000 1.00000e+00 2.01000 1.00500 -8.00000 3.00000 0.00000 -8.00000 3.00000 0.00000
57 1 1 1.00000 1.00000e+00 2.01000 1.00500 -8.00000 4.00000 0.00000 -8.00000 4.00000 0.00000
58 1 1 1.00000 1.00000e+00 2.01000 1.00500 -8.00000 5.00000 0.00000 -8.00000 5.00000 0.00000
59 1 1 1.00000 1.00000e+00 2.01000 1.00500 -8.00000 6.00000 0.00000 -8.00000 6.00000 0.00000
60 1 1 1.00000 1.00000e+00 2.01000 1.00500 -8.00000 7.00000 0.00000 -8.00000 7.00000 0.00000
61 1 1 1.00000 1.00000e+00 2.01000 1.00500 -8.00000 8.00000 0.00000 -8.00000 8.00000 0.00000
62 1 1 1.00000 1.00000e+00 2.01000 1.00500 -8.00000 9.00000 0.00000 -8.00000 9.00000 0.00000
63 1 1 1.00000 1.00000e+00 2.01000 1.00500 -8.00000 10.00000 0.00000 -8.00000 10.00000 0.00000
64 1 1 1.00000 1.00000e+00 2.01000 1.00500 -7.00000 -10.00000 0.00000 -7.00000 -10.00000 0.00000
65 1 1 1.00000 1.00000e+00 2.01000 1.00500 -7.00000 -9.00000 0.00000 -7.00000 -9.00000 0.00000
66 1 1 1.00000 1.00000e+00 2.01000 1.00500 -7.00000 -8.00000 0.00000 -7.00000 -8.00000 0.00000
67 1 1 1.00000 1.00000e+00 2.01000 1.00500 -7.00000 -7.00000 0.00000 -7.00000 -7.00000 0.00000
68 1 1 1.00000 1.00000e+00 2.01000 1.00500 -7.00000 -6.00000 0.00000 -7.00000 -6.00000 0.00000
69 1 1 1.00000 1.00000e+00 2.01000 1.00500 -7.00000 -5.00000 0.00000 -7.00000 -5.00000 0.00000
70 1 1 1.00000 1.00000e+00 2.01000 1.00500 -7.00000 -4.00000 0.00000 -7.00000 -4.00000 0.00000
71 1 1 1.00000 1.00000e+00 2.01000 1.00500 -7.00000 -3.00000 0.00000 -7.00000 -3.00000 0.00000
72 1 1 1.00000 1.00000e+00 2.01000 1.00500 -7.00000 -2.00000 0.00000 -7.00000 -2.00000 0.00000
73 1 1 1.00000 1.00000e+00 2.01000 1.00500 -7.00000 -1.00000 0.00000 -7.00000 -1.00000 0.00000
74 1 1 1.00000 1.00000e+00 2.01000 1.00500 -7.00000 0.00000 0.00000 -7.00000 0.00000 0.00000
75 1 1 1.00000 1.00000e+00 2.01000 1.00500 -7.00000 1.00000 0.00000 -7.00000 1.00000 0.00000
76 1 1 1.00000 1.00000e+00 2.01000 1.00500 -7.00000 2.00000 0.00000 -7.00000 2.00000 0.00000
77 1 1 1.00000 1.00000e+00 2.01000 1.00500 -7.00000 3.00000 0.00000 -7.00000 3.00000 0.00000
78 1 1 1.00000 1.00000e+00 2.01000 1.00500 -7.00000 4.00000 0.00000 -7.00000 4.00000 0.00000
79 1 1 1.00000 1.00000e+00 2.01000 1.00500 -7.00000 5.00000 0.00000 -7.00000 5.00000 0.00000
80 1 1 1.00000 1.00000e+00 2.01000 1.00500 -7.00000 6.00000 0.00000 -7.00000 6.00000 0.00000
81 1 1 1.00000 1.00000e+00 2.01000 1.00500 -7.00000 7.00000 0.00000 -7.00000 7.00000 0.00000
82 1 1 1.00000 1.00000e+00 2.01000 1.00500 -7.00000 8.00000 0.00000 -7.00000 8.00000 0.00000
83 1 1 1.00000 1.00000e+00 2.01000 1.00500 -7.00000 9.00000 0.00000 -7.00000 9.00000 0.00000
84 1 1 1.00000 1.00000e+00 2.01000 1.00500 -7.00000 10.00000 0.00000 -7.00000 10.00000 0.00000
85 1 1 1.00000 1.00000e+00 2.01000 1.00500 -6.00000 -10.00000 0.00000 -6.00000 -10.00000 0.00000
86 1 1 1.00000 1.00000e+00 2.01000 1.00500 -6.00000 -9.00000 0.00000 -6.00000 -9.00000 0.00000
87 1 1 1.00000 1.00000e+00 2.01000 1.00500 -6.00000 -8.00000 0.00000 -6.00000 -8.00000 0.00000
88 1 1 1.00000 1.00000e+00 2.01000 1.00500 -6.00000 -7.00000 0.00000 -6.00000 -7.00000 0.00000
89 1 1 1.00000 1.00000e+00 2.01000 1.00500 -6.00000 -6.00000 0.00000 -6.00000 -6.00000 0.00000
90 1 1 1.00000 1.00000e+00 2.01000 1.00500 -6.00000 -5.00000 0.00000 -6.00000 -5.00000 0.00000
91 1 1 1.00000 1.00000e+00 2.01000 1.00500 -6.00000 -4.00000 0.00000 -6.00000 -4.00000 0.00000
92 1 1 1.00000 1.00000e+00 2.01000 1.00500 -6.00000 -3.00000 0.00000 -6.00000 -3.00000 0.00000
93 1 1 1.00000 1.00000e+00 2.01000 1.00500 -6.00000 -2.00000 0.00000 -6.00000 -2.00000 0.00000
94 1 1 1.00000 1.00000e+00 2.01000 1.00500 -6.00000 -1.00000 0.00000 -6.00000 -1.00000 0.00000
95 1 1 1.00000 1.00000e+00 2.01000 1.00500 -6.00000 0.00000 0.00000 -6.00000 0.00000 0.00000
96 1 1 1.00000 1.00000e+00 2.01000 1.00500 -6.00000 1.00000 0.00000 -6.00000 1.00000 0.00000
97 1 1 1.00000 1.00000e+00 2.01000 1.00500 -6.00000 2.00000 0.00000 -6.00000 2.00000 0.00000
98 1 1 1.00000 1.00000e+00 2.01000 1.00500 -6.00000 3.00000 0.00000 -6.00000 3.00000 0.00000
99 1 1 1.00000 1.00000e+00 2.01000 1.00500 -6.00000 4.00000 0.00000 -6.00000 4.00000 0.00000
100 1 1 1.00000 1.00000e+00 2.01000 1.00500 -6.00000 5.00000 0.00000 -6.00000 5.00000 0.00000
101 1 1 1.00000 1.00000e+00 2.01000 1.00500 -6.00000 6.00000 0.00000 -6.00000 6.00000 0.00000
102 1 1 1.00000 1.00000e+00 2.01000 1.00500 -6.00000 7.00000 0.00000 -6.00000 7.00000 0.00000
103 1 1 1.00000 1.00000e+00 2.01000 1.00500 -6.00000 8.00000 0.00000 -6.00000 8.00000 0.00000
104 1 1 1.00000 1.00000e+00 2.01000 1.00500 -6.00000 9.00000 0.00000 -6.00000 9.00000 0.00000
105 1 1 1.00000 1.00000e+00 2.01000 1.00500 -6.00000 10.00000 0.00000 -6.00000 10.00000 0.00000
106 1 1 1.00000 1.00000e+00 2.01000 1.00500 -5.00000 -10.00000 0.00000 -5.00000 -10.00000 0.00000
107 1 1 1.00000 1.00000e+00 2.01000 1.00500 -5.00000 -9.00000 0.00000 -5.00000 -9.00000 0.00000
108 1 1 1.00000 1.00000e+00 2.01000 1.00500 -5.00000 -8.00000 0.00000 -5.00000 -8.00000 0.00000
109 1 1 1.00000 1.00000e+00 2.01000 1.00500 -5.00000 -7.00000 0.00000 -5.00000 -7.00000 0.00000
110 1 1 1.00000 1.00000e+00 2.01000 1.00500 -5.00000 -6.00000 0.00000 -5.00000 -6.00000 0.00000
111 1 1 1.00000 1.00000e+00 2.01000 1.00500 -5.00000 -5.00000 0.00000 -5.00000 -5.00000 0.00000
112 1 1 1.00000 1.00000e+00 2.01000 1.00500 -5.00000 -4.00000 0.00000 -5.00000 -4.00000 0.00000
113 1 1 1.00000 1.00000e+00 2.01000 1.00500 -5.00000 -3.00000 0.00000 -5.00000 -3.00000 0.00000
114 1 1 1.00000 1.00000e+00 2.01000 1.00500 -5.00000 -2.00000 0.00000 -5.00000 -2.00000 0.00000
115 1 1 1.00000 1.00000e+00 2.01000 1.00500 -5.00000 -1.00000 0.00000 -5.00000 -1.00000 0.00000
116 1 1 1.00000 1.00000e+00 2.01000 1.00500 -5.00000 0.00000 0.00000 -5.00000 0.00000 0.00000
117 1 1 1.00000 1.00000e+00 2.01000 1.00500 -5.00000 1.00000 0.00000 -5.00000 1.00000 0.00000
118 1 1 1.00000 1.00000e+00 2.01000 1.00500 -5.00000 2.00000 0.00000 -5.00000 2.00000 0.00000
119 1 1 1.00000 1.00000e+00 2.01000 1.00500 -5.00000 3.00000 0.00000 -5.00000 3.00000 0.00000
120 1 1 1.00000 1.00000e+00 2.01000 1.00500 -5.00000 4.00000 0.00000 -5.00000 4.00000 0.00000
121 1 1 1.00000 1.00000e+00 2.01000 1.00500 -5.00000 5.00000 0.00000 -5.00000 5.00000 0.00000
122 1 1 1.00000 1.00000e+00 2.01000 1.00500 -5.00000 6.00000 0.00000 -5.00000 6.00000 0.00000
123 1 1 1.00000 1.00000e+00 2.01000 1.00500 -5.00000 7.00000 0.00000 -5.00000 7.00000 0.00000
124 1 1 1.00000 1.00000e+00 2.01000 1.00500 -5.00000 8.00000 0.00000 -5.00000 8.00000 0.00000
125 1 1 1.00000 1.00000e+00 2.01000 1.00500 -5.00000 9.00000 0.00000 -5.00000 9.00000 0.00000
126 1 1 1.00000 1.00000e+00 2.01000 1.00500 -5.00000 10.00000 0.00000 -5.00000 10.00000 0.00000
127 1 1 1.00000 1.00000e+00 2.01000 1.00500 -4.00000 -10.00000 0.00000 -4.00000 -10.00000 0.00000
128 1 1 1.00000 1.00000e+00 2.01000 1.00500 -4.00000 -9.00000 0.00000 -4.00000 -9.00000 0.00000
129 1 1 1.00000 1.00000e+00 2.01000 1.00500 -4.00000 -8.00000 0.00000 -4.00000 -8.00000 0.00000
130 1 1 1.00000 1.00000e+00 2.01000 1.00500 -4.00000 -7.00000 0.00000 -4.00000 -7.00000 0.00000
131 1 1 1.00000 1.00000e+00 2.01000 1.00500 -4.00000 -6.00000 0.00000 -4.00000 -6.00000 0.00000
132 1 1 1.00000 1.00000e+00 2.01000 1.00500 -4.00000 -5.00000 0.00000 -4.00000 -5.00000 0.00000
133 1 1 1.00000 1.00000e+00 2.01000 1.00500 -4.00000 -4.00000 0.00000 -4.00000 -4.00000 0.00000
134 1 1 1.00000 1.00000e+00 2.01000 1.00500 -4.00000 -3.00000 0.00000 -4.00000 -3.00000 0.00000
135 1 1 1.00000 1.00000e+00 2.01000 1.00500 -4.00000 -2.00000 0.00000 -4.00000 -2.00000 0.00000
136 1 1 1.00000 1.00000e+00 2.01000 1.00500 -4.00000 -1.00000 0.00000 -4.00000 -1.00000 0.00000
137 1 1 1.00000 1.00000e+00 2.01000 1.00500 -4.00000 0.00000 0.00000 -4.00000 0.00000 0.00000
138 1 1 1.00000 1.00000e+00 2.01000 1.00500 -4.00000 1.00000 0.00000 -4.00000 1.00000 0.00000
139 1 1 1.00000 1.00000e+00 2.01000 1.00500 -4.00000 2.00000 0.00000 -4.00000 2.00000 0.00000
140 1 1 1.00000 1.00000e+00 2.01000 1.00500 -4.00000 3.00000 0.00000 -4.00000 3.00000 0.00000
141 1 1 1.00000 1.00000e+00 2.01000 1.00500 -4.00000 4.00000 0.00000 -4.00000 4.00000 0.00000
142 1 1 1.00000 1.00000e+00 2.01000 1.00500 -4.00000 5.00000 0.00000 -4.00000 5.00000 0.00000
143 1 1 1.00000 1.00000e+00 2.01000 1.00500 -4.00000 6.00000 0.00000 -4.00000 6.00000 0.00000
144 1 1 1.00000 1.00000e+00 2.01000 1.00500 -4.00000 7.00000 0.00000 -4.00000 7.00000 0.00000
145 1 1 1.00000 1.00000e+00 2.01000 1.00500 -4.00000 8.00000 0.00000 -4.00000 8.00000 0.00000
146 1 1 1.00000 1.00000e+00 2.01000 1.00500 -4.00000 9.00000 0.00000 -4.00000 9.00000 0.00000
147 1 1 1.00000 1.00000e+00 2.01000 1.00500 -4.00000 10.00000 0.00000 -4.00000 10.00000 0.00000
148 1 1 1.00000 1.00000e+00 2.01000 1.00500 -3.00000 -10.00000 0.00000 -3.00000 -10.00000 0.00000
149 1 1 1.00000 1.00000e+00 2.01000 1.00500 -3.00000 -9.00000 0.00000 -3.00000 -9.00000 0.00000
150 1 1 1.00000 1.00000e+00 2.01000 1.00500 -3.00000 -8.00000 0.00000 -3.00000 -8.00000 0.00000
151 1 1 1.00000 1.00000e+00 2.01000 1.00500 -3.00000 -7.00000 0.00000 -3.00000 -7.00000 0.00000
152 1 1 1.00000 1.00000e+00 2.01000 1.00500 -3.00000 -6.00000 0.00000 -3.00000 -6.00000 0.00000
153 1 1 1.00000 1.00000e+00 2.01000 1.00500 -3.00000 -5.00000 0.00000 -3.00000 -5.00000 0.00000
154 1 1 1.00000 1.00000e+00 2.01000 1.00500 -3.00000 -4.00000 0.00000 -3.00000 -4.00000 0.00000
155 1 1 1.00000 1.00000e+00 2.01000 1.00500 -3.00000 -3.00000 0.00000 -3.00000 -3.00000 0.00000
156 1 1 1.00000 1.00000e+00 2.01000 1.00500 -3.00000 -2.00000 0.00000 -3.00000 -2.00000 0.00000
157 1 1 1.00000 1.00000e+00 2.01000 1.00500 -3.00000 -1.00000 0.00000 -3.00000 -1.00000 0.00000
158 1 1 1.00000 1.00000e+00 2.01000 1.00500 -3.00000 0.00000 0.00000 -3.00000 0.00000 0.00000
159 1 1 1.00000 1.00000e+00 2.01000 1.00500 -3.00000 1.00000 0.00000 -3.00000 1.00000 0.00000
160 1 1 1.00000 1.00000e+00 2.01000 1.00500 -3.00000 2.00000 0.00000 -3.00000 2.00000 0.00000
161 1 1 1.00000 1.00000e+00 2.01000 1.00500 -3.00000 3.00000 0.00000 -3.00000 3.00000 0.00000
162 1 1 1.00000 1.00000e+00 2.01000 1.00500 -3.00000 4.00000 0.00000 -3.00000 4.00000 0.00000
163 1 1 1.00000 1.00000e+00 2.01000 1.00500 -3.00000 5.00000 0.00000 -3.00000 5.00000 0.00000
164 1 1 1.00000 1.00000e+00 2.01000 1.00500 -3.00000 6.00000 0.00000 -3.00000 6.00000 0.00000
165 1 1 1.00000 1.00000e+00 2.01000 1.00500 -3.00000 7.00000 0.00000 -3.00000 7.00000 0.00000
166 1 1 1.00000 1.00000e+00 2.01000 1.00500 -3.00000 8.00000 0.00000 -3.00000 8.00000 0.00000
167 1 1 1.00000 1.00000e+00 2.01000 1.00500 -3.00000 9.00000 0.00000 -3.00000 9.00000 0.00000
168 1 1 1.00000 1.00000e+00 2.01000 1.00500 -3.00000 10.00000 0.00000 -3.00000 10.00000 0.00000
169 1 1 1.00000 1.00000e+00 2.01000 1.00500 -2.00000 -10.00000 0.00000 -2.00000 -10.00000 0.00000
170 1 1 1.00000 1.00000e+00 2.01000 1.00500 -2.00000 -9.00000 0.00000 -2.00000 -9.00000 0.00000
171 1 1 1.00000 1.00000e+00 2.01000 1.00500 -2.00000 -8.00000 0.00000 -2.00000 -8.00000 0.00000
172 1 1 1.00000 1.00000e+00 2.01000 1.00500 -2.00000 -7.00000 0.00000 -2.00000 -7.00000 0.00000
173 1 1 1.00000 1.00000e+00 2.01000 1.00500 -2.00000 -6.00000 0.00000 -2.00000 -6.00000 0.00000
174 1 1 1.00000 1.00000e+00 2.01000 1.00500 -2.00000 -5.00000 0.00000 -2.00000 -5.00000 0.00000
175 1 1 1.00000 1.00000e+00 2.01000 1.00500 -2.00000 -4.00000 0.00000 -2.00000 -4.00000 0.00000
176 1 1 1.00000 1.00000e+00 2.01000 1.00500 -2.00000 -3.00000 0.00000 -2.00000 -3.00000 0.00000
177 1 1 1.00000 1.00000e+00 2.01000 1.00500 -2.00000 -2.00000 0.00000 -2.00000 -2.00000 0.00000
178 1 1 1.00000 1.00000e+00 2.01000 1.00500 -2.00000 -1.00000 0.00000 -2.00000 -1.00000 0.00000
179 1 1 1.00000 1.00000e+00 2.01000 1.00500 -2.00000 0.00000 0.00000 -2.00000 0.00000 0.00000
180 1 1 1.00000 1.00000e+00 2.01000 1.00500 -2.00000 1.00000 0.00000 -2.00000 1.00000 0.00000
181 1 1 1.00000 1.00000e+00 2.01000 1.00500 -2.00000 2.00000 0.00000 -2.00000 2.00000 0.00000
182 1 1 1.00000 1.00000e+00 2.01000 1.00500 -2.00000 3.00000 0.00000 -2.00000 3.00000 0.00000
183 1 1 1.00000 1.00000e+00 2.01000 1.00500 -2.00000 4.00000 0.00000 -2.00000 4.00000 0.00000
184 1 1 1.00000 1.00000e+00 2.01000 1.00500 -2.00000 5.00000 0.00000 -2.00000 5.00000 0.00000
185 1 1 1.00000 1.00000e+00 2.01000 1.00500 -2.00000 6.00000 0.00000 -2.00000 6.00000 0.00000
186 1 1 1.00000 1.00000e+00 2.01000 1.00500 -2.00000 7.00000 0.00000 -2.00000 7.00000 0.00000
187 1 1 1.00000 1.00000e+00 2.01000 1.00500 -2.00000 8.00000 0.00000 -2.00000 8.00000 0.00000
188 1 1 1.00000 1.00000e+00 2.01000 1.00500 -2.00000 9.00000 0.00000 -2.00000 9.00000 0.00000
189 1 1 1.00000 1.00000e+00 2.01000 1.00500 -2.00000 10.00000 0.00000 -2.00000 10.00000 0.00000
190 1 1 1.00000 1.00000e+00 2.01000 1.00500 -1.00000 -10.00000 0.00000 -1.00000 -10.00000 0.00000
191 1 1 1.00000 1.00000e+00 2.01000 1.00500 -1.00000 -9.00000 0.00000 -1.00000 -9.00000 0.00000
192 1 1 1.00000 1.00000e+00 2.01000 1.00500 -1.00000 -8.00000 0.00000 -1.00000 -8.00000 0.00000
193 1 1 1.00000 1.00000e+00 2.01000 1.00500 -1.00000 -7.00000 0.00000 -1.00000 -7.00000 0.00000
194 1 1 1.00000 1.00000e+00 2.01000 1.00500 -1.00000 -6.00000 0.00000 -1.00000 -6.00000 0.00000
195 1 1 1.00000 1.00000e+00 2.01000 1.00500 -1.00000 -5.00000 0.00000 -1.00000 -5.00000 0.00000
196 1 1 1.00000 1.00000e+00 2.01000 1.00500 -1.00000 -4.00000 0.00000 -1.00000 -4.00000 0.00000
197 1 1 1.00000 1.00000e+00 2.01000 1.00500 -1.00000 -3.00000 0.00000 -1.00000 -3.00000 0.00000
198 1 1 1.00000 1.00000e+00 2.01000 1.00500 -1.00000 -2.00000 0.00000 -1.00000 -2.00000 0.00000
199 1 1 1.00000 1.00000e+00 2.01000 1.00500 -1.00000 -1.00000 0.00000 -1.00000 -1.00000 0.00000
200 1 1 1.00000 1.00000e+00 2.01000 1.00500 -1.00000 0.00000 0.00000 -1.00000 0.00000 0.00000
201 1 1 1.00000 1.00000e+00 2.01000 1.00500 -1.00000 1.00000 0.00000 -1.00000 1.00000 0.00000
202 1 1 1.00000 1.00000e+00 2.01000 1.00500 -1.00000 2.00000 0.00000 -1.00000 2.00000 0.00000
203 1 1 1.00000 1.00000e+00 2.01000 1.00500 -1.00000 3.00000 0.00000 -1.00000 3.00000 0.00000
204 1 1 1.00000 1.00000e+00 2.01000 1.00500 -1.00000 4.00000 0.00000 -1.00000 4.00000 0.00000
205 1 1 1.00000 1.00000e+00 2.01000 1.00500 -1.00000 5.00000 0.00000 -1.00000 5.00000 0.00000
206 1 1 1.00000 1.00000e+00 2.01000 1.00500 -1.00000 6.00000 0.00000 -1.00000 6.00000 0.00000
207 1 1 1.00000 1.00000e+00 2.01000 1.00500 -1.00000 7.00000 0.00000 -1.00000 7.00000 0.00000
208 1 1 1.00000 1.00000e+00 2.01000 1.00500 -1.00000 8.00000 0.00000 -1.00000 8.00000 0.00000
209 1 1 1.00000 1.00000e+00 2.01000 1.00500 -1.00000 9.00000 0.00000 -1.00000 9.00000 0.00000
210 1 1 1.00000 1.00000e+00 2.01000 1.00500 -1.00000 10.00000 0.00000 -1.00000 10.00000 0.00000
211 1 1 1.00000 1.00000e+00 2.01000 1.00500 0.00000 -10.00000 0.00000 0.00000 -10.00000 0.00000
212 1 1 1.00000 1.00000e+00 2.01000 1.00500 0.00000 -9.00000 0.00000 0.00000 -9.00000 0.00000
213 1 1 1.00000 1.00000e+00 2.01000 1.00500 0.00000 -8.00000 0.00000 0.00000 -8.00000 0.00000
214 1 1 1.00000 1.00000e+00 2.01000 1.00500 0.00000 -7.00000 0.00000 0.00000 -7.00000 0.00000
215 1 1 1.00000 1.00000e+00 2.01000 1.00500 0.00000 -6.00000 0.00000 0.00000 -6.00000 0.00000
216 1 1 1.00000 1.00000e+00 2.01000 1.00500 0.00000 -5.00000 0.00000 0.00000 -5.00000 0.00000
217 1 1 1.00000 1.00000e+00 2.01000 1.00500 0.00000 -4.00000 0.00000 0.00000 -4.00000 0.00000
218 1 1 1.00000 1.00000e+00 2.01000 1.00500 0.00000 -3.00000 0.00000 0.00000 -3.00000 0.00000
219 1 1 1.00000 1.00000e+00 2.01000 1.00500 0.00000 -2.00000 0.00000 0.00000 -2.00000 0.00000
220 1 1 1.00000 1.00000e+00 2.01000 1.00500 0.00000 -1.00000 0.00000 0.00000 -1.00000 0.00000
221 1 1 1.00000 1.00000e+00 2.01000 1.00500 0.00000 0.00000 0.00000 0.00000 0.00000 0.00000
222 1 1 1.00000 1.00000e+00 2.01000 1.00500 0.00000 1.00000 0.00000 0.00000 1.00000 0.00000
223 1 1 1.00000 1.00000e+00 2.01000 1.00500 0.00000 2.00000 0.00000 0.00000 2.00000 0.00000
224 1 1 1.00000 1.00000e+00 2.01000 1.00500 0.00000 3.00000 0.00000 0.00000 3.00000 0.00000
225 1 1 1.00000 1.00000e+00 2.01000 1.00500 0.00000 4.00000 0.00000 0.00000 4.00000 0.00000
226 1 1 1.00000 1.00000e+00 2.01000 1.00500 0.00000 5.00000 0.00000 0.00000 5.00000 0.00000
227 1 1 1.00000 1.00000e+00 2.01000 1.00500 0.00000 6.00000 0.00000 0.00000 6.00000 0.00000
228 1 1 1.00000 1.00000e+00 2.01000 1.00500 0.00000 7.00000 0.00000 0.00000 7.00000 0.00000
229 1 1 1.00000 1.00000e+00 2.01000 1.00500 0.00000 8.00000 0.00000 0.00000 8.00000 0.00000
230 1 1 1.00000 1.00000e+00 2.01000 1.00500 0.00000 9.00000 0.00000 0.00000 9.00000 0.00000
231 1 1 1.00000 1.00000e+00 2.01000 1.00500 0.00000 10.00000 0.00000 0.00000 10.00000 0.00000
232 1 1 1.00000 1.00000e+00 2.01000 1.00500 1.00000 -10.00000 0.00000 1.00000 -10.00000 0.00000
233 1 1 1.00000 1.00000e+00 2.01000 1.00500 1.00000 -9.00000 0.00000 1.00000 -9.00000 0.00000
234 1 1 1.00000 1.00000e+00 2.01000 1.00500 1.00000 -8.00000 0.00000 1.00000 -8.00000 0.00000
235 1 1 1.00000 1.00000e+00 2.01000 1.00500 1.00000 -7.00000 0.00000 1.00000 -7.00000 0.00000
236 1 1 1.00000 1.00000e+00 2.01000 1.00500 1.00000 -6.00000 0.00000 1.00000 -6.00000 0.00000
237 1 1 1.00000 1.00000e+00 2.01000 1.00500 1.00000 -5.00000 0.00000 1.00000 -5.00000 0.00000
238 1 1 1.00000 1.00000e+00 2.01000 1.00500 1.00000 -4.00000 0.00000 1.00000 -4.00000 0.00000
239 1 1 1.00000 1.00000e+00 2.01000 1.00500 1.00000 -3.00000 0.00000 1.00000 -3.00000 0.00000
240 1 1 1.00000 1.00000e+00 2.01000 1.00500 1.00000 -2.00000 0.00000 1.00000 -2.00000 0.00000
241 1 1 1.00000 1.00000e+00 2.01000 1.00500 1.00000 -1.00000 0.00000 1.00000 -1.00000 0.00000
242 1 1 1.00000 1.00000e+00 2.01000 1.00500 1.00000 0.00000 0.00000 1.00000 0.00000 0.00000
243 1 1 1.00000 1.00000e+00 2.01000 1.00500 1.00000 1.00000 0.00000 1.00000 1.00000 0.00000
244 1 1 1.00000 1.00000e+00 2.01000 1.00500 1.00000 2.00000 0.00000 1.00000 2.00000 0.00000
245 1 1 1.00000 1.00000e+00 2.01000 1.00500 1.00000 3.00000 0.00000 1.00000 3.00000 0.00000
246 1 1 1.00000 1.00000e+00 2.01000 1.00500 1.00000 4.00000 0.00000 1.00000 4.00000 0.00000
247 1 1 1.00000 1.00000e+00 2.01000 1.00500 1.00000 5.00000 0.00000 1.00000 5.00000 0.00000
248 1 1 1.00000 1.00000e+00 2.01000 1.00500 1.00000 6.00000 0.00000 1.00000 6.00000 0.00000
249 1 1 1.00000 1.00000e+00 2.01000 1.00500 1.00000 7.00000 0.00000 1.00000 7.00000 0.00000
250 1 1 1.00000 1.00000e+00 2.01000 1.00500 1.00000 8.00000 0.00000 1.00000 8.00000 0.00000
251 1 1 1.00000 1.00000e+00 2.01000 1.00500 1.00000 9.00000 0.00000 1.00000 9.00000 0.00000
252 1 1 1.00000 1.00000e+00 2.01000 1.00500 1.00000 10.00000 0.00000 1.00000 10.00000 0.00000
253 1 1 1.00000 1.00000e+00 2.01000 1.00500 2.00000 -10.00000 0.00000 2.00000 -10.00000 0.00000
254 1 1 1.00000 1.00000e+00 2.01000 1.00500 2.00000 -9.00000 0.00000 2.00000 -9.00000 0.00000
255 1 1 1.00000 1.00000e+00 2.01000 1.00500 2.00000 -8.00000 0.00000 2.00000 -8.00000 0.00000
256 1 1 1.00000 1.00000e+00 2.01000 1.00500 2.00000 -7.00000 0.00000 2.00000 -7.00000 0.00000
257 1 1 1.00000 1.00000e+00 2.01000 1.00500 2.00000 -6.00000 0.00000 2.00000 -6.00000 0.00000
258 1 1 1.00000 1.00000e+00 2.01000 1.00500 2.00000 -5.00000 0.00000 2.00000 -5.00000 0.00000
259 1 1 1.00000 1.00000e+00 2.01000 1.00500 2.00000 -4.00000 0.00000 2.00000 -4.00000 0.00000
260 1 1 1.00000 1.00000e+00 2.01000 1.00500 2.00000 -3.00000 0.00000 2.00000 -3.00000 0.00000
261 1 1 1.00000 1.00000e+00 2.01000 1.00500 2.00000 -2.00000 0.00000 2.00000 -2.00000 0.00000
262 1 1 1.00000 1.00000e+00 2.01000 1.00500 2.00000 -1.00000 0.00000 2.00000 -1.00000 0.00000
263 1 1 1.00000 1.00000e+00 2.01000 1.00500 2.00000 0.00000 0.00000 2.00000 0.00000 0.00000
264 1 1 1.00000 1.00000e+00 2.01000 1.00500 2.00000 1.00000 0.00000 2.00000 1.00000 0.00000
265 1 1 1.00000 1.00000e+00 2.01000 1.00500 2.00000 2.00000 0.00000 2.00000 2.00000 0.00000
266 1 1 1.00000 1.00000e+00 2.01000 1.00500 2.00000 3.00000 0.00000 2.00000 3.00000 0.00000
267 1 1 1.00000 1.00000e+00 2.01000 1.00500 2.00000 4.00000 0.00000 2.00000 4.00000 0.00000
268 1 1 1.00000 1.00000e+00 2.01000 1.00500 2.00000 5.00000 0.00000 2.00000 5.00000 0.00000
269 1 1 1.00000 1.00000e+00 2.01000 1.00500 2.00000 6.00000 0.00000 2.00000 6.00000 0.00000
270 1 1 1.00000 1.00000e+00 2.01000 1.00500 2.00000 7.00000 0.00000 2.00000 7.00000 0.00000
271 1 1 1.00000 1.00000e+00 2.01000 1.00500 2.00000 8.00000 0.00000 2.00000 8.00000 0.00000
272 1 1 1.00000 1.00000e+00 2.01000 1.00500 2.00000 9.00000 0.00000 2.00000 9.00000 0.00000
273 1 1 1.00000 1.00000e+00 2.01000 1.00500 2.00000 10.00000 0.00000 2.00000 10.00000 0.00000
274 1 1 1.00000 1.00000e+00 2.01000 1.00500 3.00000 -10.00000 0.00000 3.00000 -10.00000 0.00000
275 1 1 1.00000 1.00000e+00 2.01000 1.00500 3.00000 -9.00000 0.00000 3.00000 -9.00000 0.00000
276 1 1 1.00000 1.00000e+00 2.01000 1.00500 3.00000 -8.00000 0.00000 3.00000 -8.00000 0.00000
277 1 1 1.00000 1.00000e+00 2.01000 1.00500 3.00000 -7.00000 0.00000 3.00000 -7.00000 0.00000
278 1 1 1.00000 1.00000e+00 2.01000 1.00500 3.00000 -6.00000 0.00000 3.00000 -6.00000 0.00000
279 1 1 1.00000 1.00000e+00 2.01000 1.00500 3.00000 -5.00000 0.00000 3.00000 -5.00000 0.00000
280 1 1 1.00000 1.00000e+00 2.01000 1.00500 3.00000 -4.00000 0.00000 3.00000 -4.00000 0.00000
281 1 1 1.00000 1.00000e+00 2.01000 1.00500 3.00000 -3.00000 0.00000 3.00000 -3.00000 0.00000
282 1 1 1.00000 1.00000e+00 2.01000 1.00500 3.00000 -2.00000 0.00000 3.00000 -2.00000 0.00000
283 1 1 1.00000 1.00000e+00 2.01000 1.00500 3.00000 -1.00000 0.00000 3.00000 -1.00000 0.00000
284 1 1 1.00000 1.00000e+00 2.01000 1.00500 3.00000 0.00000 0.00000 3.00000 0.00000 0.00000
285 1 1 1.00000 1.00000e+00 2.01000 1.00500 3.00000 1.00000 0.00000 3.00000 1.00000 0.00000
286 1 1 1.00000 1.00000e+00 2.01000 1.00500 3.00000 2.00000 0.00000 3.00000 2.00000 0.00000
287 1 1 1.00000 1.00000e+00 2.01000 1.00500 3.00000 3.00000 0.00000 3.00000 3.00000 0.00000
288 1 1 1.00000 1.00000e+00 2.01000 1.00500 3.00000 4.00000 0.00000 3.00000 4.00000 0.00000
289 1 1 1.00000 1.00000e+00 2.01000 1.00500 3.00000 5.00000 0.00000 3.00000 5.00000 0.00000
290 1 1 1.00000 1.00000e+00 2.01000 1.00500 3.00000 6.00000 0.00000 3.00000 6.00000 0.00000
291 1 1 1.00000 1.00000e+00 2.01000 1.00500 3.00000 7.00000 0.00000 3.00000 7.00000 0.00000
292 1 1 1.00000 1.00000e+00 2.01000 1.00500 3.00000 8.00000 0.00000 3.00000 8.00000 0.00000
293 1 1 1.00000 1.00000e+00 2.01000 1.00500 3.00000 9.00000 0.00000 3.00000 9.00000 0.00000
294 1 1 1.00000 1.00000e+00 2.01000 1.00500 3.00000 10.00000 0.00000 3.00000 10.00000 0.00000
295 1 1 1.00000 1.00000e+00 2.01000 1.00500 4.00000 -10.00000 0.00000 4.00000 -10.00000 0.00000
296 1 1 1.00000 1.00000e+00 2.01000 1.00500 4.00000 -9.00000 0.00000 4.00000 -9.00000 0.00000
297 1 1 1.00000 1.00000e+00 2.01000 1.00500 4.00000 -8.00000 0.00000 4.00000 -8.00000 0.00000
298 1 1 1.00000 1.00000e+00 2.01000 1.00500 4.00000 -7.00000 0.00000 4.00000 -7.00000 0.00000
299 1 1 1.00000 1.00000e+00 2.01000 1.00500 4.00000 -6.00000 0.00000 4.00000 -6.00000 0.00000
300 1 1 1.00000 1.00000e+00 2.01000 1.00500 4.00000 -5.00000 0.00000 4.00000 -5.00000 0.00000
301 1 1 1.00000 1.00000e+00 2.01000 1.00500 4.00000 -4.00000 0.00000 4.00000 -4.00000 0.00000
302 1 1 1.00000 1.00000e+00 2.01000 1.00500 4.00000 -3.00000 0.00000 4.00000 -3.00000 0.00000
303 1 1 1.00000 1.00000e+00 2.01000 1.00500 4.00000 -2.00000 0.00000 4.00000 -2.00000 0.00000
304 1 1 1.00000 1.00000e+00 2.01000 1.00500 4.00000 -1.00000 0.00000 4.00000 -1.00000 0.00000
305 1 1 1.00000 1.00000e+00 2.01000 1.00500 4.00000 0.00000 0.00000 4.00000 0.00000 0.00000
306 1 1 1.00000 1.00000e+00 2.01000 1.00500 4.00000 1.00000 0.00000 4.00000 1.00000 0.00000
307 1 1 1.00000 1.00000e+00 2.01000 1.00500 4.00000 2.00000 0.00000 4.00000 2.00000 0.00000
308 1 1 1.00000 1.00000e+00 2.01000 1.00500 4.00000 3.00000 0.00000 4.00000 3.00000 0.00000
309 1 1 1.00000 1.00000e+00 2.01000 1.00500 4.00000 4.00000 0.00000 4.00000 4.00000 0.00000
310 1 1 1.00000 1.00000e+00 2.01000 1.00500 4.00000 5.00000 0.00000 4.00000 5.00000 0.00000
311 1 1 1.00000 1.00000e+00 2.01000 1.00500 4.00000 6.00000 0.00000 4.00000 6.00000 0.00000
312 1 1 1.00000 1.00000e+00 2.01000 1.00500 4.00000 7.00000 0.00000 4.00000 7.00000 0.00000
313 1 1 1.00000 1.00000e+00 2.01000 1.00500 4.00000 8.00000 0.00000 4.00000 8.00000 0.00000
314 1 1 1.00000 1.00000e+00 2.01000 1.00500 4.00000 9.00000 0.00000 4.00000 9.00000 0.00000
315 1 1 1.00000 1.00000e+00 2.01000 1.00500 4.00000 10.00000 0.00000 4.00000 10.00000 0.00000
316 1 1 1.00000 1.00000e+00 2.01000 1.00500 5.00000 -10.00000 0.00000 5.00000 -10.00000 0.00000