ITEM: TIMESTEP
0
ITEM: NUMBER OF ATOMS
3641
ITEM: BOX BOUNDS sm sm pp
-1.0002020000000000e+01 1.0100000000000000e+01
-1.0002020000000000e+01 1.0100000000000000e+01
-5.0000000000000000e-01 5.0000000000000000e-01
ITEM: ATOMS id type xs ys zs
1 1 0.000100487 0.000100487 0.5
2 1 0.000100487 0.0498467 0.5
3 1 0.000100487 0.099593 0.5
4 1 0.000100487 0.149339 0.5
22 1 0.0498467 0.000100487 0.5
23 1 0.0498467 0.0498467 0.5
24 1 0.0498467 0.099593 0.5
25 1 0.0498467 0.149339 0.5
43 1 0.099593 0.000100487 0.5
44 1 0.099593 0.0498467 0.5
45 1 0.099593 0.099593 0.5
46 1 0.099593 0.149339 0.5
64 1 0.149339 0.000100487 0.5
65 1 0.149339 0.0498467 0.5
66 1 0.149339 0.099593 0.5
67 1 0.149339 0.149339 0.5
487 2 0.106878 0.106878 0.5
510 2 0.0176883 0.117181 0.5
517 2 0.0820052 0.156625 0.5
636 2 0.0571321 0.0322589 0.5
637 2 0.0322589 0.0571321 0.5
638 2 0.0176883 0.0425614 0.5
639 2 0.0820052 0.00738582 0.5
640 2 0.00738582 0.0571321 0.5
641 2 0.0425614 0.0176883 0.5
650 2 0.0571321 0.156625 0.5
662 2 0.106878 0.131751 0.5
664 2 0.117181 0.117181 0.5
666 2 0.0571321 0.0571321 0.5
668 2 0.156625 0.0820052 0.5
1236 2 0.0176883 0.0176883 0.5
1237 2 0.00738582 0.00738582 0.5
1238 2 0.0322589 0.00738582 0.5
1239 2 0.0674345 0.0425614 0.5
1240 2 0.106878 0.0571321 0.5
1241 2 0.117181 0.0674345 0.5
1242 2 0.0923076 0.0176883 0.5
1243 2 0.106878 0.00738582 0.5
1244 2 0.0322589 0.0322589 0.5
1245 2 0.0571321 0.00738582 0.5
1246 2 0.0923076 0.0425614 0.5
1247 2 0.0674345 0.0176883 0.5
1248 2 0.0820052 0.0322589 0.5
1249 2 0.00738582 0.0820052 0.5
1250 2 0.117181 0.0425614 0.5
1251 2 0.106878 0.0820052 0.5
1252 2 0.0820052 0.106878 0.5
1253 2 0.0923076 0.0674345 0.5
1254 2 0.0674345 0.0674345 0.5
1255 2 0.0923076 0.142054 0.5
1256 2 0.0820052 0.0571321 0.5
1257 2 0.0923076 0.0923076 0.5
1258 2 0.0674345 0.0923076 0.5
1259 2 0.0571321 0.0820052 0.5
1260 2 0.0425614 0.0674345 0.5
1261 2 0.0425614 0.0425614 0.5
1262 2 0.00738582 0.0322589 0.5
1263 2 0.0425614 0.0923076 0.5
1264 2 0.0176883 0.0674345 0.5
1265 2 0.0176883 0.0923076 0.5
1266 2 0.0322589 0.0820052 0.5
1267 2 0.0176883 0.142054 0.5
1268 2 0.0322589 0.106878 0.5
1270 2 0.0425614 0.117181 0.5
1271 2 0.0425614 0.142054 0.5
1272 2 0.0322589 0.131751 0.5
1273 2 0.00738582 0.106878 0.5
1274 2 0.00738582 0.131751 0.5
1275 2 0.00738582 0.156625 0.5
1287 2 0.106878 0.156625 0.5
1293 2 0.0322589 0.156625 0.5
1294 2 0.0571321 0.131751 0.5
1296 2 0.0571321 0.106878 0.5
1297 2 0.0923076 0.117181 0.5
1298 2 0.0820052 0.0820052 0.5
1299 2 0.0674345 0.117181 0.5
1300 2 0.0674345 0.142054 0.5
1301 2 0.0820052 0.131751 0.5
1303 2 0.117181 0.142054 0.5
1304 2 0.131751 0.131751 0.5
1305 2 0.131751 0.106878 0.5
1311 2 0.131751 0.156625 0.5
1315 2 0.156625 0.156625 0.5
1316 2 0.142054 0.142054 0.5
1317 2 0.156625 0.131751 0.5
1347 2 0.142054 0.0923076 0.5
1350 2 0.156625 0.106878 0.5
1351 2 0.142054 0.117181 0.5
1352 2 0.117181 0.0923076 0.5
1353 2 0.131751 0.0820052 0.5
1354 2 0.106878 0.0322589 0.5
1356 2 0.131751 0.0571321 0.5
1357 2 0.156625 0.0322589 0.5
1358 2 0.142054 0.0674345 0.5
1360 2 0.156625 0.0571321 0.5
1361 2 0.131751 0.0322589 0.5
1362 2 0.142054 0.0425614 0.5
1363 2 0.156625 0.00738582 0.5
1364 2 0.117181 0.0176883 0.5
1365 2 0.131751 0.00738582 0.5
1366 2 0.142054 0.0176883 0.5
85 1 0.199085 0.000100487 0.5
86 1 0.199085 0.0498467 0.5
87 1 0.199085 0.099593 0.5
88 1 0.199085 0.149339 0.5
106 1 0.248832 0.000100487 0.5
107 1 0.248832 0.0498467 0.5
108 1 0.248832 0.099593 0.5
109 1 0.248832 0.149339 0.5
127 1 0.298578 0.000100487 0.5
128 1 0.298578 0.0498467 0.5
129 1 0.298578 0.099593 0.5
130 1 0.298578 0.149339 0.5
450 2 0.181498 0.156625 0.5
451 2 0.316166 0.117181 0.5
484 2 0.231244 0.0820052 0.5
486 2 0.28099 0.106878 0.5
489 2 0.166927 0.0674345 0.5
491 2 0.181498 0.106878 0.5
492 2 0.206371 0.0820052 0.5
493 2 0.316166 0.0425614 0.5
499 2 0.28099 0.0571321 0.5
504 2 0.256117 0.106878 0.5
658 2 0.166927 0.142054 0.5
667 2 0.231244 0.156625 0.5
669 2 0.256117 0.0571321 0.5
670 2 0.181498 0.0571321 0.5
671 2 0.256117 0.00738582 0.5
672 2 0.206371 0.131751 0.5
673 2 0.206371 0.0571321 0.5
674 2 0.305863 0.131751 0.5
675 2 0.256117 0.156625 0.5
676 2 0.291293 0.142054 0.5
677 2 0.241546 0.142054 0.5
679 2 0.28099 0.0820052 0.5
681 2 0.305863 0.00738582 0.5
686 2 0.305863 0.0820052 0.5
1302 2 0.166927 0.0923076 0.5
1307 2 0.181498 0.0820052 0.5
1308 2 0.206371 0.156625 0.5
1309 2 0.206371 0.106878 0.5
1327 2 0.181498 0.131751 0.5
1334 2 0.216673 0.142054 0.5
1336 2 0.1918 0.142054 0.5
1337 2 0.1918 0.117181 0.5
1338 2 0.231244 0.131751 0.5
1340 2 0.216673 0.0923076 0.5
1341 2 0.216673 0.0674345 0.5
1342 2 0.216673 0.0176883 0.5
1343 2 0.256117 0.0322589 0.5
1344 2 0.1918 0.0923076 0.5
1345 2 0.1918 0.0674345 0.5
1346 2 0.166927 0.117181 0.5
1348 2 0.216673 0.117181 0.5
1349 2 0.231244 0.106878 0.5
1355 2 0.181498 0.00738582 0.5
1359 2 0.181498 0.0322589 0.5
1367 2 0.166927 0.0425614 0.5
1368 2 0.166927 0.0176883 0.5
1369 2 0.206371 0.00738582 0.5
1370 2 0.1918 0.0425614 0.5
1371 2 0.1918 0.0176883 0.5
1372 2 0.231244 0.0571321 0.5
1373 2 0.206371 0.0322589 0.5
1374 2 0.231244 0.0322589 0.5
1375 2 0.231244 0.00738582 0.5
1376 2 0.216673 0.0425614 0.5
1377 2 0.266419 0.0425614 0.5
1378 2 0.241546 0.0425614 0.5
1379 2 0.241546 0.0176883 0.5
1380 2 0.266419 0.0176883 0.5
1381 2 0.28099 0.00738582 0.5
1383 2 0.256117 0.0820052 0.5
1384 2 0.241546 0.0674345 0.5
1385 2 0.266419 0.117181 0.5
1386 2 0.241546 0.0923076 0.5
1387 2 0.291293 0.0923076 0.5
1388 2 0.266419 0.0923076 0.5
1389 2 0.266419 0.0674345 0.5
1390 2 0.291293 0.0674345 0.5
1391 2 0.28099 0.0322589 0.5
1392 2 0.330736 0.0571321 0.5
1393 2 0.305863 0.0322589 0.5
1394 2 0.316166 0.0923076 0.5
1395 2 0.305863 0.0571321 0.5
1396 2 0.330736 0.0820052 0.5
1398 2 0.330736 0.0322589 0.5
1399 2 0.316166 0.0674345 0.5
1403 2 0.316166 0.0176883 0.5
1404 2 0.291293 0.0425614 0.5
1405 2 0.291293 0.0176883 0.5
1406 2 0.330736 0.00738582 0.5
1493 2 0.330736 0.156625 0.5
1500 2 0.330736 0.106878 0.5
1501 2 0.28099 0.131751 0.5
1502 2 0.330736 0.131751 0.5
1506 2 0.316166 0.142054 0.5
1508 2 0.291293 0.117181 0.5
1509 2 0.305863 0.106878 0.5
1510 2 0.266419 0.142054 0.5
1511 2 0.241546 0.117181 0.5
1512 2 0.256117 0.131751 0.5
1515 2 0.28099 0.156625 0.5
1518 2 0.305863 0.156625 0.5
148 1 0.348324 0.000100487 0.5
149 1 0.348324 0.0498467 0.5
150 1 0.348324 0.099593 0.5
151 1 0.348324 0.149339 0.5
169 1 0.39807 0.000100487 0.5
170 1 0.39807 0.0498467 0.5
171 1 0.39807 0.099593 0.5
172 1 0.39807 0.149339 0.5
190 1 0.447817 0.000100487 0.5
191 1 0.447817 0.0498467 0.5
192 1 0.447817 0.099593 0.5
193 1 0.447817 0.149339 0.5
211 1 0.497563 0.000100487 0.5
212 1 0.497563 0.0498467 0.5
213 1 0.497563 0.099593 0.5
214 1 0.497563 0.149339 0.5
490 2 0.455102 0.0322589 0.5
495 2 0.341039 0.0425614 0.5
497 2 0.430229 0.0571321 0.5
498 2 0.390785 0.0176883 0.5
500 2 0.390785 0.142054 0.5
501 2 0.341039 0.117181 0.5
502 2 0.415658 0.0674345 0.5
505 2 0.465404 0.0425614 0.5
622 2 0.440531 0.0425614 0.5
625 2 0.465404 0.0176883 0.5
678 2 0.35561 0.00738582 0.5
680 2 0.35561 0.0820052 0.5
682 2 0.380483 0.0820052 0.5
683 2 0.490278 0.0176883 0.5
684 2 0.465404 0.117181 0.5
685 2 0.405356 0.0571321 0.5
687 2 0.380483 0.131751 0.5
688 2 0.415658 0.0923076 0.5
689 2 0.365912 0.0674345 0.5
691 2 0.365912 0.117181 0.5
693 2 0.430229 0.0820052 0.5
1148 2 0.430229 0.156625 0.5
1179 2 0.405356 0.156625 0.5
1186 2 0.465404 0.0674345 0.5
1382 2 0.341039 0.0176883 0.5
1397 2 0.35561 0.0571321 0.5
1400 2 0.341039 0.0923076 0.5
1401 2 0.341039 0.0674345 0.5
1402 2 0.35561 0.0322589 0.5
1407 2 0.390785 0.0674345 0.5
1408 2 0.405356 0.0322589 0.5
1409 2 0.415658 0.0425614 0.5
1410 2 0.365912 0.0176883 0.5
1411 2 0.380483 0.00738582 0.5
1412 2 0.405356 0.00738582 0.5
1413 2 0.390785 0.0425614 0.5
1414 2 0.430229 0.0322589 0.5
1415 2 0.415658 0.0176883 0.5
1416 2 0.430229 0.00738582 0.5
1417 2 0.455102 0.00738582 0.5
1418 2 0.440531 0.0176883 0.5
1421 2 0.490278 0.0923076 0.5
1422 2 0.479975 0.00738582 0.5
1423 2 0.490278 0.0425614 0.5
1424 2 0.479975 0.0322589 0.5
1425 2 0.490278 0.117181 0.5
1426 2 0.455102 0.0820052 0.5
1427 2 0.479975 0.0571321 0.5
1428 2 0.490278 0.0674345 0.5
1430 2 0.479975 0.106878 0.5
1432 2 0.440531 0.0923076 0.5
1434 2 0.465404 0.0923076 0.5
1435 2 0.479975 0.0820052 0.5
1437 2 0.405356 0.0820052 0.5
1438 2 0.440531 0.0674345 0.5
1439 2 0.455102 0.0571321 0.5
1440 2 0.365912 0.0425614 0.5
1441 2 0.380483 0.0322589 0.5
1442 2 0.380483 0.0571321 0.5
1443 2 0.365912 0.0923076 0.5
1444 2 0.405356 0.131751 0.5
1445 2 0.390785 0.0923076 0.5
1446 2 0.390785 0.117181 0.5
1447 2 0.405356 0.106878 0.5
1448 2 0.380483 0.156625 0.5
1449 2 0.415658 0.117181 0.5
1450 2 0.455102 0.156625 0.5
1452 2 0.430229 0.106878 0.5
1453 2 0.455102 0.106878 0.5
1454 2 0.415658 0.142054 0.5
1455 2 0.465404 0.142054 0.5
1456 2 0.430229 0.131751 0.5
1457 2 0.440531 0.117181 0.5
1458 2 0.479975 0.131751 0.5
1460 2 0.490278 0.142054 0.5
1462 2 0.440531 0.142054 0.5
1463 2 0.455102 0.131751 0.5
1466 2 0.479975 0.156625 0.5
1494 2 0.35561 0.156625 0.5
1497 2 0.380483 0.106878 0.5
1498 2 0.365912 0.142054 0.5
1499 2 0.35561 0.131751 0.5
1504 2 0.35561 0.106878 0.5
1505 2 0.341039 0.142054 0.5
232 1 0.547309 0.000100487 0.5
233 1 0.547309 0.0498467 0.5
234 1 0.547309 0.099593 0.5
235 1 0.547309 0.149339 0.5
253 1 0.597055 0.000100487 0.5
254 1 0.597055 0.0498467 0.5
255 1 0.597055 0.099593 0.5
256 1 0.597055 0.149339 0.5
274 1 0.646802 0.000100487 0.5
275 1 0.646802 0.0498467 0.5
276 1 0.646802 0.099593 0.5
277 1 0.646802 0.149339 0.5
496 2 0.564897 0.0425614 0.5
507 2 0.629214 0.0820052 0.5
618 2 0.639516 0.0425614 0.5
620 2 0.515151 0.117181 0.5
626 2 0.579468 0.0571321 0.5
629 2 0.654087 0.106878 0.5
632 2 0.629214 0.0571321 0.5
1169 2 0.564897 0.117181 0.5
1172 2 0.639516 0.117181 0.5
1178 2 0.504848 0.106878 0.5
1180 2 0.58977 0.142054 0.5
1181 2 0.554595 0.106878 0.5
1182 2 0.614643 0.142054 0.5
1184 2 0.554595 0.156625 0.5
1185 2 0.529721 0.156625 0.5
1188 2 0.579468 0.131751 0.5
1189 2 0.504848 0.0322589 0.5
1190 2 0.629214 0.106878 0.5
1191 2 0.604341 0.0322589 0.5
1192 2 0.614643 0.117181 0.5
1193 2 0.614643 0.0923076 0.5
1195 2 0.664389 0.0923076 0.5
1197 2 0.664389 0.117181 0.5
1201 2 0.564897 0.0176883 0.5
1419 2 0.504848 0.00738582 0.5
1420 2 0.515151 0.0425614 0.5
1429 2 0.515151 0.0923076 0.5
1431 2 0.529721 0.106878 0.5
1461 2 0.515151 0.142054 0.5
3372 2 0.664389 0.142054 0.5
3374 2 0.654087 0.156625 0.5
3404 2 0.579468 0.156625 0.5
3405 2 0.504848 0.156625 0.5
3406 2 0.554595 0.131751 0.5
3408 2 0.504848 0.131751 0.5
3409 2 0.540024 0.117181 0.5
3410 2 0.529721 0.131751 0.5
3412 2 0.540024 0.142054 0.5
3413 2 0.58977 0.117181 0.5
3414 2 0.564897 0.142054 0.5
3415 2 0.604341 0.131751 0.5
3416 2 0.579468 0.106878 0.5
3420 2 0.604341 0.156625 0.5
3421 2 0.629214 0.131751 0.5
3422 2 0.629214 0.156625 0.5
3423 2 0.654087 0.131751 0.5
3424 2 0.639516 0.142054 0.5
3425 2 0.604341 0.106878 0.5
3426 2 0.579468 0.0820052 0.5
3427 2 0.604341 0.0820052 0.5
3428 2 0.579468 0.00738582 0.5
3429 2 0.58977 0.0674345 0.5
3430 2 0.529721 0.0571321 0.5
3431 2 0.564897 0.0923076 0.5
3432 2 0.540024 0.0674345 0.5
3433 2 0.604341 0.0571321 0.5
3434 2 0.58977 0.0923076 0.5
3435 2 0.504848 0.0820052 0.5
3436 2 0.504848 0.0571321 0.5
3437 2 0.554595 0.0820052 0.5
3438 2 0.529721 0.0820052 0.5
3439 2 0.529721 0.0322589 0.5
3440 2 0.515151 0.0674345 0.5
3441 2 0.540024 0.0425614 0.5
3442 2 0.564897 0.0674345 0.5
3443 2 0.554595 0.0571321 0.5
3444 2 0.540024 0.0923076 0.5
3445 2 0.579468 0.0322589 0.5
3447 2 0.540024 0.0176883 0.5
3448 2 0.554595 0.0322589 0.5
3449 2 0.515151 0.0176883 0.5
3450 2 0.529721 0.00738582 0.5
3451 2 0.554595 0.00738582 0.5
3452 2 0.58977 0.0176883 0.5
3453 2 0.604341 0.00738582 0.5
3454 2 0.614643 0.0425614 0.5
3455 2 0.58977 0.0425614 0.5
3456 2 0.629214 0.0322589 0.5
3457 2 0.614643 0.0674345 0.5
3458 2 0.654087 0.00738582 0.5
3459 2 0.614643 0.0176883 0.5
3460 2 0.664389 0.0176883 0.5
3463 2 0.654087 0.0820052 0.5
3464 2 0.629214 0.00738582 0.5
3465 2 0.639516 0.0176883 0.5
3466 2 0.654087 0.0571321 0.5
3467 2 0.654087 0.0322589 0.5
3468 2 0.639516 0.0674345 0.5
3470 2 0.639516 0.0923076 0.5
3473 2 0.664389 0.0425614 0.5
3475 2 0.664389 0.0674345 0.5
295 1 0.696548 0.000100487 0.5
296 1 0.696548 0.0498467 0.5
297 1 0.696548 0.099593 0.5
298 1 0.696548 0.149339 0.5
316 1 0.746294 0.000100487 0.5
317 1 0.746294 0.0498467 0.5
318 1 0.746294 0.099593 0.5
319 1 0.746294 0.149339 0.5
337 1 0.79604 0.000100487 0.5
338 1 0.79604 0.0498467 0.5
339 1 0.79604 0.099593 0.5
340 1 0.79604 0.149339 0.5
624 2 0.739009 0.0674345 0.5
627 2 0.728706 0.0571321 0.5
633 2 0.753579 0.0322589 0.5
635 2 0.813628 0.0425614 0.5
1166 2 0.67896 0.106878 0.5
1173 2 0.703833 0.156625 0.5
1194 2 0.714136 0.0923076 0.5
1196 2 0.703833 0.106878 0.5
1198 2 0.739009 0.117181 0.5
1199 2 0.714136 0.142054 0.5
1200 2 0.703833 0.0322589 0.5
1202 2 0.763882 0.117181 0.5
1203 2 0.728706 0.106878 0.5
1204 2 0.813628 0.142054 0.5
1208 2 0.813628 0.0176883 0.5
1209 2 0.778453 0.156625 0.5
1210 2 0.828199 0.00738582 0.5
1212 2 0.788755 0.0923076 0.5
1214 2 0.778453 0.0820052 0.5
1215 2 0.813628 0.0923076 0.5
1218 2 0.803326 0.0571321 0.5
1220 2 0.828199 0.0571321 0.5
3355 2 0.753579 0.156625 0.5
3357 2 0.753579 0.106878 0.5
3358 2 0.739009 0.142054 0.5
3359 2 0.728706 0.131751 0.5
3361 2 0.728706 0.156625 0.5
3363 2 0.778453 0.131751 0.5
3365 2 0.67896 0.131751 0.5
3368 2 0.689263 0.142054 0.5
3369 2 0.689263 0.117181 0.5
3370 2 0.703833 0.131751 0.5
3371 2 0.67896 0.156625 0.5
3446 2 0.739009 0.0176883 0.5
3461 2 0.714136 0.0425614 0.5
3462 2 0.67896 0.00738582 0.5
3469 2 0.67896 0.0820052 0.5
3471 2 0.689263 0.0674345 0.5
3472 2 0.714136 0.0674345 0.5
3474 2 0.703833 0.0571321 0.5
3476 2 0.67896 0.0571321 0.5
3477 2 0.67896 0.0322589 0.5
3478 2 0.703833 0.00738582 0.5
3479 2 0.689263 0.0923076 0.5
3480 2 0.703833 0.0820052 0.5
3481 2 0.728706 0.0820052 0.5
3482 2 0.714136 0.117181 0.5
3483 2 0.753579 0.0571321 0.5
3484 2 0.739009 0.0923076 0.5
3485 2 0.788755 0.0425614 0.5
3486 2 0.778453 0.0571321 0.5
3487 2 0.763882 0.0176883 0.5
3488 2 0.739009 0.0425614 0.5
3489 2 0.714136 0.0176883 0.5
3490 2 0.728706 0.0322589 0.5
3491 2 0.689263 0.0425614 0.5
3492 2 0.689263 0.0176883 0.5
3493 2 0.728706 0.00738582 0.5
3494 2 0.753579 0.00738582 0.5
3495 2 0.778453 0.0322589 0.5
3496 2 0.778453 0.00738582 0.5
3497 2 0.763882 0.0425614 0.5
3498 2 0.803326 0.00738582 0.5
3499 2 0.788755 0.0176883 0.5
3500 2 0.803326 0.0322589 0.5
3501 2 0.788755 0.0674345 0.5
3507 2 0.813628 0.0674345 0.5
3508 2 0.828199 0.0322589 0.5
3517 2 0.813628 0.117181 0.5
3521 2 0.803326 0.106878 0.5
3522 2 0.828199 0.0820052 0.5
3523 2 0.778453 0.106878 0.5
3524 2 0.803326 0.0820052 0.5
3525 2 0.753579 0.0820052 0.5
3526 2 0.763882 0.0674345 0.5
3527 2 0.763882 0.0923076 0.5
3528 2 0.788755 0.117181 0.5
3529 2 0.788755 0.142054 0.5
3530 2 0.753579 0.131751 0.5
3531 2 0.803326 0.131751 0.5
3533 2 0.828199 0.106878 0.5
3534 2 0.828199 0.131751 0.5
3536 2 0.803326 0.156625 0.5
3537 2 0.763882 0.142054 0.5
3550 2 0.828199 0.156625 0.5
358 1 0.845787 0.000100487 0.5
359 1 0.845787 0.0498467 0.5
360 1 0.845787 0.099593 0.5
361 1 0.845787 0.149339 0.5
379 1 0.895533 0.000100487 0.5
380 1 0.895533 0.0498467 0.5
381 1 0.895533 0.099593 0.5
382 1 0.895533 0.149339 0.5
400 1 0.945279 0.000100487 0.5
401 1 0.945279 0.0498467 0.5
402 1 0.945279 0.099593 0.5
403 1 0.945279 0.149339 0.5
421 1 0.995025 0.000100487 0.5
422 1 0.995025 0.0498467 0.5
423 1 0.995025 0.099593 0.5
424 1 0.995025 0.149339 0.5
485 2 0.838501 0.142054 0.5
600 2 0.977438 0.131751 0.5
630 2 0.977438 0.0571321 0.5
631 2 0.838501 0.117181 0.5
634 2 0.962867 0.0674345 0.5
1205 2 0.952564 0.0820052 0.5
1206 2 0.838501 0.0176883 0.5
1207 2 0.952564 0.0322589 0.5
1211 2 0.838501 0.0923076 0.5
1213 2 0.838501 0.0425614 0.5
1217 2 0.902818 0.156625 0.5
1219 2 0.927691 0.0571321 0.5
1221 2 0.863374 0.0176883 0.5
1222 2 0.863374 0.0923076 0.5
1227 2 0.98774 0.0923076 0.5
1230 2 0.977438 0.0820052 0.5
1231 2 0.977438 0.0322589 0.5
1232 2 0.962867 0.0425614 0.5
1233 2 0.977438 0.00738582 0.5
1234 2 0.962867 0.0176883 0.5
1235 2 0.98774 0.0176883 0.5
3502 2 0.853072 0.00738582 0.5
3503 2 0.863374 0.0425614 0.5
3504 2 0.927691 0.0322589 0.5
3505 2 0.853072 0.0571321 0.5
3506 2 0.937994 0.0425614 0.5
3509 2 0.838501 0.0674345 0.5
3510 2 0.853072 0.0322589 0.5
3511 2 0.952564 0.156625 0.5
3512 2 0.863374 0.0674345 0.5
3513 2 0.863374 0.117181 0.5
3514 2 0.962867 0.0923076 0.5
3515 2 0.902818 0.131751 0.5
3518 2 0.853072 0.0820052 0.5
3519 2 0.853072 0.106878 0.5
3520 2 0.853072 0.131751 0.5
3532 2 0.863374 0.142054 0.5
3562 2 0.877945 0.156625 0.5
3570 2 0.853072 0.156625 0.5
3571 2 0.913121 0.117181 0.5
3573 2 0.888248 0.0923076 0.5
3574 2 0.962867 0.142054 0.5
3575 2 0.937994 0.142054 0.5
3576 2 0.952564 0.131751 0.5
3577 2 0.877945 0.131751 0.5
3579 2 0.902818 0.106878 0.5
3584 2 0.927691 0.156625 0.5
3602 2 0.98774 0.142054 0.5
3604 2 0.977438 0.156625 0.5
3607 2 0.962867 0.117181 0.5
3608 2 0.977438 0.106878 0.5
3609 2 0.98774 0.117181 0.5
3610 2 0.937994 0.0923076 0.5
3611 2 0.877945 0.0322589 0.5
3612 2 0.927691 0.106878 0.5
3613 2 0.877945 0.0571321 0.5
3614 2 0.952564 0.106878 0.5
3615 2 0.937994 0.117181 0.5
3616 2 0.927691 0.131751 0.5
3617 2 0.913121 0.142054 0.5
3618 2 0.888248 0.142054 0.5
3619 2 0.877945 0.106878 0.5
3620 2 0.888248 0.117181 0.5
3621 2 0.877945 0.0820052 0.5
3622 2 0.888248 0.0674345 0.5
3623 2 0.902818 0.0820052 0.5
3624 2 0.927691 0.0820052 0.5
3625 2 0.913121 0.0923076 0.5
3626 2 0.913121 0.0674345 0.5
3627 2 0.888248 0.0425614 0.5
3628 2 0.877945 0.00738582 0.5
3629 2 0.902818 0.0571321 0.5
3630 2 0.902818 0.0322589 0.5
3631 2 0.888248 0.0176883 0.5
3632 2 0.913121 0.0176883 0.5
3633 2 0.913121 0.0425614 0.5
3634 2 0.902818 0.00738582 0.5
3635 2 0.927691 0.00738582 0.5
3636 2 0.952564 0.00738582 0.5
3637 2 0.937994 0.0176883 0.5
3638 2 0.98774 0.0674345 0.5
3639 2 0.952564 0.0571321 0.5
3640 2 0.937994 0.0674345 0.5
3641 2 0.98774 0.0425614 0.5
5 1 0.000100487 0.199085 0.5
6 1 0.000100487 0.248832 0.5
7 1 0.000100487 0.298578 0.5
26 1 0.0498467 0.199085 0.5
27 1 0.0498467 0.248832 0.5
28 1 0.0498467 0.298578 0.5
47 1 0.099593 0.199085 0.5
48 1 0.099593 0.248832 0.5
49 1 0.099593 0.298578 0.5
68 1 0.149339 0.199085 0.5
69 1 0.149339 0.248832 0.5
70 1 0.149339 0.298578 0.5
455 2 0.131751 0.206371 0.5
518 2 0.142054 0.241546 0.5
519 2 0.00738582 0.206371 0.5
520 2 0.142054 0.291293 0.5
521 2 0.0674345 0.266419 0.5
523 2 0.106878 0.28099 0.5
524 2 0.142054 0.316166 0.5
642 2 0.00738582 0.181498 0.5
643 2 0.0674345 0.241546 0.5
645 2 0.0176883 0.241546 0.5
646 2 0.0674345 0.316166 0.5
647 2 0.0322589 0.181498 0.5
648 2 0.0571321 0.28099 0.5
649 2 0.0176883 0.266419 0.5
651 2 0.0425614 0.216673 0.5
652 2 0.156625 0.206371 0.5
653 2 0.106878 0.206371 0.5
654 2 0.0923076 0.166927 0.5
655 2 0.0820052 0.28099 0.5
659 2 0.156625 0.28099 0.5
660 2 0.131751 0.28099 0.5
663 2 0.117181 0.216673 0.5
665 2 0.0674345 0.166927 0.5
762 2 0.156625 0.305863 0.5
764 2 0.0923076 0.291293 0.5
766 2 0.106878 0.330736 0.5
770 2 0.0820052 0.305863 0.5
771 2 0.0820052 0.330736 0.5
1269 2 0.0425614 0.1918 0.5
1276 2 0.0176883 0.216673 0.5
1277 2 0.0322589 0.206371 0.5
1278 2 0.0176883 0.1918 0.5
1279 2 0.0176883 0.166927 0.5
1280 2 0.0674345 0.1918 0.5
1281 2 0.0425614 0.241546 0.5
1282 2 0.0571321 0.206371 0.5
1283 2 0.0923076 0.266419 0.5
1284 2 0.0674345 0.216673 0.5
1285 2 0.117181 0.241546 0.5
1286 2 0.0820052 0.206371 0.5
1288 2 0.117181 0.166927 0.5
1289 2 0.0820052 0.181498 0.5
1290 2 0.0923076 0.216673 0.5
1291 2 0.0923076 0.1918 0.5
1292 2 0.0571321 0.181498 0.5
1295 2 0.0425614 0.166927 0.5
1310 2 0.106878 0.181498 0.5
1312 2 0.117181 0.1918 0.5
1313 2 0.131751 0.181498 0.5
1314 2 0.142054 0.216673 0.5
1318 2 0.142054 0.1918 0.5
1319 2 0.142054 0.166927 0.5
1321 2 0.156625 0.181498 0.5
1746 2 0.142054 0.266419 0.5
1747 2 0.156625 0.231244 0.5
1748 2 0.106878 0.256117 0.5
1749 2 0.131751 0.231244 0.5
1750 2 0.156625 0.256117 0.5
1752 2 0.106878 0.305863 0.5
1757 2 0.156625 0.330736 0.5
1759 2 0.131751 0.330736 0.5
1765 2 0.0571321 0.330736 0.5
1766 2 0.0322589 0.330736 0.5
1767 2 0.0425614 0.291293 0.5
1768 2 0.0923076 0.316166 0.5
1769 2 0.131751 0.256117 0.5
1770 2 0.131751 0.305863 0.5
1771 2 0.117181 0.316166 0.5
1772 2 0.117181 0.291293 0.5
1773 2 0.117181 0.266419 0.5
1774 2 0.0923076 0.241546 0.5
1775 2 0.106878 0.231244 0.5
1776 2 0.0571321 0.256117 0.5
1777 2 0.0820052 0.231244 0.5
1778 2 0.0322589 0.28099 0.5
1779 2 0.0571321 0.231244 0.5
1780 2 0.0674345 0.291293 0.5
1781 2 0.0820052 0.256117 0.5
1782 2 0.0571321 0.305863 0.5
1783 2 0.0425614 0.316166 0.5
1784 2 0.0322589 0.231244 0.5
1785 2 0.0425614 0.266419 0.5
1786 2 0.00738582 0.231244 0.5
1787 2 0.00738582 0.256117 0.5
1788 2 0.00738582 0.28099 0.5
1790 2 0.0322589 0.256117 0.5
1791 2 0.0176883 0.291293 0.5
1792 2 0.00738582 0.305863 0.5
1793 2 0.0176883 0.316166 0.5
1794 2 0.0322589 0.305863 0.5
1797 2 0.00738582 0.330736 0.5
89 1 0.199085 0.199085 0.5
90 1 0.199085 0.248832 0.5
91 1 0.199085 0.298578 0.5
110 1 0.248832 0.199085 0.5
111 1 0.248832 0.248832 0.5
112 1 0.248832 0.298578 0.5
131 1 0.298578 0.199085 0.5
132 1 0.298578 0.248832 0.5
133 1 0.298578 0.298578 0.5
480 2 0.330736 0.305863 0.5
503 2 0.241546 0.241546 0.5
509 2 0.241546 0.316166 0.5
515 2 0.266419 0.266419 0.5
656 2 0.1918 0.316166 0.5
696 2 0.330736 0.28099 0.5
697 2 0.256117 0.231244 0.5
700 2 0.28099 0.330736 0.5
701 2 0.231244 0.256117 0.5
702 2 0.266419 0.1918 0.5
703 2 0.305863 0.28099 0.5
704 2 0.231244 0.206371 0.5
705 2 0.1918 0.241546 0.5
706 2 0.206371 0.231244 0.5
707 2 0.166927 0.291293 0.5
709 2 0.206371 0.305863 0.5
725 2 0.305863 0.330736 0.5
760 2 0.166927 0.316166 0.5
1306 2 0.181498 0.181498 0.5
1320 2 0.181498 0.231244 0.5
1322 2 0.216673 0.1918 0.5
1323 2 0.1918 0.216673 0.5
1324 2 0.206371 0.206371 0.5
1325 2 0.305863 0.256117 0.5
1326 2 0.241546 0.1918 0.5
1328 2 0.231244 0.181498 0.5
1329 2 0.216673 0.216673 0.5
1330 2 0.206371 0.181498 0.5
1331 2 0.1918 0.1918 0.5
1332 2 0.166927 0.1918 0.5
1333 2 0.166927 0.166927 0.5
1335 2 0.1918 0.166927 0.5
1339 2 0.216673 0.166927 0.5
1489 2 0.291293 0.166927 0.5
1490 2 0.330736 0.181498 0.5
1491 2 0.305863 0.206371 0.5
1503 2 0.28099 0.181498 0.5
1507 2 0.316166 0.166927 0.5
1513 2 0.241546 0.166927 0.5
1514 2 0.266419 0.166927 0.5
1516 2 0.256117 0.181498 0.5
1517 2 0.256117 0.206371 0.5
1519 2 0.316166 0.1918 0.5
1520 2 0.291293 0.216673 0.5
1521 2 0.316166 0.266419 0.5
1522 2 0.241546 0.216673 0.5
1523 2 0.28099 0.231244 0.5
1524 2 0.291293 0.1918 0.5
1525 2 0.305863 0.181498 0.5
1526 2 0.256117 0.256117 0.5
1527 2 0.216673 0.241546 0.5
1528 2 0.266419 0.216673 0.5
1529 2 0.28099 0.206371 0.5
1530 2 0.291293 0.241546 0.5
1531 2 0.266419 0.241546 0.5
1532 2 0.28099 0.28099 0.5
1533 2 0.256117 0.28099 0.5
1534 2 0.256117 0.305863 0.5
1536 2 0.256117 0.330736 0.5
1540 2 0.291293 0.316166 0.5
1541 2 0.266419 0.291293 0.5
1542 2 0.266419 0.316166 0.5
1543 2 0.28099 0.305863 0.5
1544 2 0.316166 0.291293 0.5
1546 2 0.305863 0.305863 0.5
1548 2 0.330736 0.330736 0.5
1551 2 0.316166 0.316166 0.5
1555 2 0.330736 0.256117 0.5
1556 2 0.291293 0.291293 0.5
1557 2 0.28099 0.256117 0.5
1558 2 0.316166 0.216673 0.5
1559 2 0.291293 0.266419 0.5
1560 2 0.305863 0.231244 0.5
1561 2 0.330736 0.206371 0.5
1562 2 0.316166 0.241546 0.5
1563 2 0.330736 0.231244 0.5
1724 2 0.231244 0.330736 0.5
1727 2 0.1918 0.291293 0.5
1728 2 0.181498 0.330736 0.5
1729 2 0.181498 0.305863 0.5
1731 2 0.206371 0.330736 0.5
1732 2 0.241546 0.291293 0.5
1733 2 0.241546 0.266419 0.5
1734 2 0.231244 0.305863 0.5
1735 2 0.206371 0.256117 0.5
1736 2 0.231244 0.231244 0.5
1737 2 0.216673 0.266419 0.5
1738 2 0.206371 0.28099 0.5
1739 2 0.216673 0.316166 0.5
1740 2 0.216673 0.291293 0.5
1741 2 0.231244 0.28099 0.5
1742 2 0.166927 0.241546 0.5
1743 2 0.1918 0.266419 0.5
1744 2 0.166927 0.216673 0.5
1745 2 0.181498 0.206371 0.5
1751 2 0.166927 0.266419 0.5
1754 2 0.181498 0.256117 0.5
1755 2 0.181498 0.28099 0.5
152 1 0.348324 0.199085 0.5
153 1 0.348324 0.248832 0.5
154 1 0.348324 0.298578 0.5
173 1 0.39807 0.199085 0.5
174 1 0.39807 0.248832 0.5
175 1 0.39807 0.298578 0.5
194 1 0.447817 0.199085 0.5
195 1 0.447817 0.248832 0.5
196 1 0.447817 0.298578 0.5
215 1 0.497563 0.199085 0.5
216 1 0.497563 0.248832 0.5
217 1 0.497563 0.298578 0.5
448 2 0.390785 0.316166 0.5
449 2 0.365912 0.1918 0.5
452 2 0.405356 0.231244 0.5
454 2 0.35561 0.181498 0.5
457 2 0.405356 0.206371 0.5
476 2 0.405356 0.256117 0.5
488 2 0.380483 0.206371 0.5
511 2 0.415658 0.291293 0.5
555 2 0.405356 0.330736 0.5
612 2 0.440531 0.266419 0.5
617 2 0.455102 0.206371 0.5
619 2 0.390785 0.166927 0.5
690 2 0.341039 0.1918 0.5
692 2 0.390785 0.1918 0.5
694 2 0.440531 0.216673 0.5
695 2 0.430229 0.28099 0.5
698 2 0.440531 0.316166 0.5
699 2 0.405356 0.28099 0.5
717 2 0.415658 0.316166 0.5
720 2 0.430229 0.330736 0.5
721 2 0.440531 0.291293 0.5
727 2 0.405356 0.305863 0.5
1131 2 0.490278 0.216673 0.5
1135 2 0.465404 0.316166 0.5
1141 2 0.455102 0.28099 0.5
1146 2 0.490278 0.291293 0.5
1147 2 0.490278 0.316166 0.5
1176 2 0.490278 0.166927 0.5
1433 2 0.430229 0.181498 0.5
1436 2 0.440531 0.166927 0.5
1451 2 0.430229 0.231244 0.5
1459 2 0.465404 0.166927 0.5
1464 2 0.479975 0.181498 0.5
1467 2 0.465404 0.1918 0.5
1468 2 0.490278 0.1918 0.5
1470 2 0.479975 0.231244 0.5
1472 2 0.455102 0.181498 0.5
1473 2 0.465404 0.216673 0.5
1474 2 0.479975 0.206371 0.5
1476 2 0.465404 0.241546 0.5
1477 2 0.415658 0.216673 0.5
1478 2 0.405356 0.181498 0.5
1479 2 0.440531 0.1918 0.5
1480 2 0.415658 0.1918 0.5
1481 2 0.415658 0.166927 0.5
1482 2 0.35561 0.256117 0.5
1483 2 0.390785 0.216673 0.5
1484 2 0.430229 0.206371 0.5
1485 2 0.415658 0.241546 0.5
1486 2 0.35561 0.231244 0.5
1487 2 0.365912 0.216673 0.5
1488 2 0.341039 0.216673 0.5
1492 2 0.341039 0.166927 0.5
1495 2 0.380483 0.181498 0.5
1496 2 0.365912 0.166927 0.5
1545 2 0.390785 0.291293 0.5
1552 2 0.380483 0.330736 0.5
1554 2 0.35561 0.28099 0.5
1564 2 0.35561 0.206371 0.5
1565 2 0.380483 0.28099 0.5
1566 2 0.341039 0.266419 0.5
1567 2 0.341039 0.241546 0.5
1568 2 0.415658 0.266419 0.5
1569 2 0.430229 0.256117 0.5
1570 2 0.365912 0.241546 0.5
1571 2 0.380483 0.231244 0.5
1572 2 0.390785 0.266419 0.5
1573 2 0.390785 0.241546 0.5
1574 2 0.479975 0.256117 0.5
1575 2 0.455102 0.256117 0.5
1576 2 0.490278 0.266419 0.5
1577 2 0.490278 0.241546 0.5
1578 2 0.479975 0.28099 0.5
1580 2 0.440531 0.241546 0.5
1581 2 0.455102 0.231244 0.5
1582 2 0.465404 0.291293 0.5
1583 2 0.465404 0.266419 0.5
1588 2 0.455102 0.330736 0.5
1589 2 0.479975 0.305863 0.5
1590 2 0.430229 0.305863 0.5
1592 2 0.455102 0.305863 0.5
1595 2 0.365912 0.316166 0.5
1596 2 0.35561 0.305863 0.5
1597 2 0.380483 0.256117 0.5
1598 2 0.365912 0.291293 0.5
1599 2 0.365912 0.266419 0.5
1600 2 0.341039 0.316166 0.5
1601 2 0.341039 0.291293 0.5
1602 2 0.380483 0.305863 0.5
1615 2 0.479975 0.330736 0.5
1658 2 0.35561 0.330736 0.5
236 1 0.547309 0.199085 0.5
237 1 0.547309 0.248832 0.5
238 1 0.547309 0.298578 0.5
257 1 0.597055 0.199085 0.5
258 1 0.597055 0.248832 0.5
259 1 0.597055 0.298578 0.5
278 1 0.646802 0.199085 0.5
279 1 0.646802 0.248832 0.5
280 1 0.646802 0.298578 0.5
467 2 0.504848 0.330736 0.5
605 2 0.579468 0.231244 0.5
610 2 0.604341 0.231244 0.5
614 2 0.604341 0.305863 0.5
621 2 0.515151 0.1918 0.5
1111 2 0.629214 0.181498 0.5
1127 2 0.629214 0.305863 0.5
1144 2 0.529721 0.28099 0.5
1149 2 0.540024 0.1918 0.5
1150 2 0.579468 0.181498 0.5
1151 2 0.540024 0.241546 0.5
1152 2 0.554595 0.181498 0.5
1153 2 0.614643 0.266419 0.5
1154 2 0.579468 0.206371 0.5
1155 2 0.664389 0.241546 0.5
1156 2 0.579468 0.305863 0.5
1157 2 0.564897 0.241546 0.5
1159 2 0.664389 0.291293 0.5
1160 2 0.614643 0.216673 0.5
1161 2 0.654087 0.305863 0.5
1163 2 0.664389 0.266419 0.5
1165 2 0.664389 0.1918 0.5
1168 2 0.639516 0.166927 0.5
1170 2 0.629214 0.206371 0.5
1171 2 0.58977 0.1918 0.5
1174 2 0.564897 0.216673 0.5
1175 2 0.564897 0.166927 0.5
1177 2 0.529721 0.231244 0.5
1183 2 0.58977 0.216673 0.5
1187 2 0.529721 0.206371 0.5
1465 2 0.529721 0.181498 0.5
1469 2 0.504848 0.181498 0.5
1471 2 0.504848 0.206371 0.5
1475 2 0.515151 0.216673 0.5
1579 2 0.529721 0.256117 0.5
1584 2 0.515151 0.316166 0.5
1586 2 0.529721 0.305863 0.5
3269 2 0.629214 0.330736 0.5
3271 2 0.554595 0.305863 0.5
3276 2 0.604341 0.330736 0.5
3280 2 0.504848 0.305863 0.5
3283 2 0.529721 0.330736 0.5
3286 2 0.579468 0.330736 0.5
3288 2 0.504848 0.28099 0.5
3289 2 0.515151 0.291293 0.5
3290 2 0.554595 0.256117 0.5
3291 2 0.504848 0.256117 0.5
3292 2 0.540024 0.266419 0.5
3293 2 0.554595 0.28099 0.5
3294 2 0.540024 0.291293 0.5
3295 2 0.564897 0.291293 0.5
3296 2 0.554595 0.330736 0.5
3297 2 0.58977 0.291293 0.5
3298 2 0.564897 0.316166 0.5
3300 2 0.540024 0.316166 0.5
3301 2 0.58977 0.316166 0.5
3302 2 0.579468 0.28099 0.5
3303 2 0.564897 0.266419 0.5
3304 2 0.58977 0.241546 0.5
3305 2 0.579468 0.256117 0.5
3306 2 0.629214 0.256117 0.5
3307 2 0.654087 0.231244 0.5
3309 2 0.664389 0.216673 0.5
3311 2 0.614643 0.291293 0.5
3312 2 0.654087 0.28099 0.5
3313 2 0.639516 0.291293 0.5
3314 2 0.604341 0.28099 0.5
3315 2 0.614643 0.316166 0.5
3316 2 0.629214 0.28099 0.5
3317 2 0.639516 0.316166 0.5
3319 2 0.654087 0.330736 0.5
3323 2 0.664389 0.316166 0.5
3360 2 0.664389 0.166927 0.5
3376 2 0.654087 0.256117 0.5
3385 2 0.639516 0.266419 0.5
3386 2 0.629214 0.231244 0.5
3387 2 0.654087 0.181498 0.5
3388 2 0.639516 0.1918 0.5
3389 2 0.604341 0.181498 0.5
3390 2 0.604341 0.206371 0.5
3391 2 0.639516 0.216673 0.5
3392 2 0.614643 0.241546 0.5
3393 2 0.639516 0.241546 0.5
3394 2 0.654087 0.206371 0.5
3395 2 0.604341 0.256117 0.5
3396 2 0.58977 0.266419 0.5
3397 2 0.515151 0.266419 0.5
3398 2 0.504848 0.231244 0.5
3399 2 0.540024 0.216673 0.5
3400 2 0.515151 0.241546 0.5
3401 2 0.554595 0.206371 0.5
3402 2 0.554595 0.231244 0.5
3403 2 0.564897 0.1918 0.5
3407 2 0.515151 0.166927 0.5
3411 2 0.540024 0.166927 0.5
3417 2 0.614643 0.166927 0.5