ITEM: TIMESTEP
0
ITEM: NUMBER OF ATOMS
1241
ITEM: BOX BOUNDS sm sm pp
-1.0002020000000000e+01 1.0100000000000000e+01
-1.0002020000000000e+01 1.0100000000000000e+01
-5.0000000000000000e-01 5.0000000000000000e-01
ITEM: ATOMS id type xs ys zs
1 1 0.000100487 0.000100487 0.5
2 1 0.000100487 0.0498467 0.5
3 1 0.000100487 0.099593 0.5
4 1 0.000100487 0.149339 0.5
22 1 0.0498467 0.000100487 0.5
23 1 0.0498467 0.0498467 0.5
24 1 0.0498467 0.099593 0.5
25 1 0.0498467 0.149339 0.5
43 1 0.099593 0.000100487 0.5
44 1 0.099593 0.0498467 0.5
45 1 0.099593 0.099593 0.5
46 1 0.099593 0.149339 0.5
64 1 0.149339 0.000100487 0.5
65 1 0.149339 0.0498467 0.5
66 1 0.149339 0.099593 0.5
67 1 0.149339 0.149339 0.5
481 2 0.0850228 0.0850228 0.5
482 2 0.0644169 0.163909 0.5
484 2 0.114163 0.163909 0.5
487 2 0.0146707 0.0146707 0.5
630 2 0.0352766 0.0352766 0.5
631 2 0.134769 0.0352766 0.5
632 2 0.0850228 0.0352766 0.5
633 2 0.0146707 0.0644169 0.5
634 2 0.0644169 0.0146707 0.5
635 2 0.0352766 0.0850228 0.5
636 2 0.0146707 0.114163 0.5
637 2 0.0146707 0.163909 0.5
638 2 0.0352766 0.134769 0.5
640 2 0.0644169 0.0644169 0.5
642 2 0.0644169 0.114163 0.5
643 2 0.0850228 0.134769 0.5
644 2 0.114163 0.114163 0.5
646 2 0.134769 0.134769 0.5
647 2 0.163909 0.114163 0.5
649 2 0.163909 0.163909 0.5
650 2 0.163909 0.0644169 0.5
654 2 0.163909 0.0146707 0.5
655 2 0.134769 0.0850228 0.5
656 2 0.114163 0.0146707 0.5
657 2 0.114163 0.0644169 0.5
85 1 0.199085 0.000100487 0.5
86 1 0.199085 0.0498467 0.5
87 1 0.199085 0.099593 0.5
88 1 0.199085 0.149339 0.5
106 1 0.248832 0.000100487 0.5
107 1 0.248832 0.0498467 0.5
108 1 0.248832 0.099593 0.5
109 1 0.248832 0.149339 0.5
127 1 0.298578 0.000100487 0.5
128 1 0.298578 0.0498467 0.5
129 1 0.298578 0.099593 0.5
130 1 0.298578 0.149339 0.5
486 2 0.184515 0.0352766 0.5
498 2 0.313148 0.0644169 0.5
651 2 0.284008 0.0850228 0.5
652 2 0.184515 0.134769 0.5
653 2 0.263402 0.0644169 0.5
658 2 0.213656 0.0644169 0.5
659 2 0.213656 0.0146707 0.5
660 2 0.184515 0.0850228 0.5
661 2 0.234262 0.0352766 0.5
663 2 0.263402 0.0146707 0.5
664 2 0.284008 0.0352766 0.5
668 2 0.313148 0.0146707 0.5
680 2 0.313148 0.163909 0.5
690 2 0.213656 0.163909 0.5
692 2 0.313148 0.114163 0.5
693 2 0.213656 0.114163 0.5
694 2 0.263402 0.163909 0.5
695 2 0.263402 0.114163 0.5
696 2 0.284008 0.134769 0.5
697 2 0.234262 0.0850228 0.5
699 2 0.234262 0.134769 0.5
148 1 0.348324 0.000100487 0.5
149 1 0.348324 0.0498467 0.5
150 1 0.348324 0.099593 0.5
151 1 0.348324 0.149339 0.5
169 1 0.39807 0.000100487 0.5
170 1 0.39807 0.0498467 0.5
171 1 0.39807 0.099593 0.5
172 1 0.39807 0.149339 0.5
190 1 0.447817 0.000100487 0.5
191 1 0.447817 0.0498467 0.5
192 1 0.447817 0.099593 0.5
193 1 0.447817 0.149339 0.5
211 1 0.497563 0.000100487 0.5
212 1 0.497563 0.0498467 0.5
213 1 0.497563 0.099593 0.5
214 1 0.497563 0.149339 0.5
452 2 0.412641 0.114163 0.5
490 2 0.482993 0.0352766 0.5
494 2 0.3835 0.0352766 0.5
495 2 0.3835 0.134769 0.5
496 2 0.362894 0.163909 0.5
611 2 0.462387 0.114163 0.5
613 2 0.482993 0.0850228 0.5
662 2 0.333754 0.134769 0.5
666 2 0.333754 0.0850228 0.5
667 2 0.362894 0.0644169 0.5
669 2 0.362894 0.0146707 0.5
670 2 0.333754 0.0352766 0.5
671 2 0.433247 0.0352766 0.5
673 2 0.462387 0.0146707 0.5
675 2 0.462387 0.0644169 0.5
676 2 0.412641 0.0146707 0.5
677 2 0.433247 0.0850228 0.5
678 2 0.3835 0.0850228 0.5
679 2 0.412641 0.0644169 0.5
681 2 0.362894 0.114163 0.5
682 2 0.462387 0.163909 0.5
683 2 0.433247 0.134769 0.5
685 2 0.412641 0.163909 0.5
1190 2 0.482993 0.134769 0.5
232 1 0.547309 0.000100487 0.5
233 1 0.547309 0.0498467 0.5
234 1 0.547309 0.099593 0.5
235 1 0.547309 0.149339 0.5
253 1 0.597055 0.000100487 0.5
254 1 0.597055 0.0498467 0.5
255 1 0.597055 0.099593 0.5
256 1 0.597055 0.149339 0.5
274 1 0.646802 0.000100487 0.5
275 1 0.646802 0.0498467 0.5
276 1 0.646802 0.099593 0.5
277 1 0.646802 0.149339 0.5
477 2 0.611626 0.0146707 0.5
480 2 0.632231 0.0352766 0.5
489 2 0.611626 0.114163 0.5
614 2 0.661372 0.114163 0.5
672 2 0.512133 0.0146707 0.5
674 2 0.582485 0.0850228 0.5
1171 2 0.661372 0.0644169 0.5
1172 2 0.661372 0.163909 0.5
1174 2 0.561879 0.114163 0.5
1181 2 0.532739 0.0352766 0.5
1182 2 0.512133 0.163909 0.5
1184 2 0.512133 0.114163 0.5
1185 2 0.561879 0.163909 0.5
1186 2 0.611626 0.163909 0.5
1188 2 0.532739 0.134769 0.5
1189 2 0.632231 0.0850228 0.5
1191 2 0.512133 0.0644169 0.5
1192 2 0.532739 0.0850228 0.5
1193 2 0.561879 0.0146707 0.5
1194 2 0.661372 0.0146707 0.5
1195 2 0.561879 0.0644169 0.5
1196 2 0.582485 0.0352766 0.5
1198 2 0.582485 0.134769 0.5
1199 2 0.611626 0.0644169 0.5
1201 2 0.632231 0.134769 0.5
295 1 0.696548 0.000100487 0.5
296 1 0.696548 0.0498467 0.5
297 1 0.696548 0.099593 0.5
298 1 0.696548 0.149339 0.5
316 1 0.746294 0.000100487 0.5
317 1 0.746294 0.0498467 0.5
318 1 0.746294 0.099593 0.5
319 1 0.746294 0.149339 0.5
337 1 0.79604 0.000100487 0.5
338 1 0.79604 0.0498467 0.5
339 1 0.79604 0.099593 0.5
340 1 0.79604 0.149339 0.5
594 2 0.711118 0.114163 0.5
607 2 0.731724 0.134769 0.5
620 2 0.78147 0.0850228 0.5
621 2 0.711118 0.0146707 0.5
623 2 0.760864 0.0644169 0.5
1168 2 0.760864 0.114163 0.5
1169 2 0.760864 0.163909 0.5
1177 2 0.711118 0.163909 0.5
1197 2 0.681978 0.0352766 0.5
1200 2 0.681978 0.0850228 0.5
1202 2 0.681978 0.134769 0.5
1203 2 0.711118 0.0644169 0.5
1204 2 0.731724 0.0352766 0.5
1205 2 0.78147 0.0352766 0.5
1206 2 0.731724 0.0850228 0.5
1207 2 0.760864 0.0146707 0.5
1211 2 0.831216 0.0352766 0.5
1212 2 0.810611 0.0146707 0.5
1213 2 0.78147 0.134769 0.5
1214 2 0.810611 0.0644169 0.5
1215 2 0.831216 0.0850228 0.5
1218 2 0.810611 0.163909 0.5
1219 2 0.810611 0.114163 0.5
1220 2 0.831216 0.134769 0.5
358 1 0.845787 0.000100487 0.5
359 1 0.845787 0.0498467 0.5
360 1 0.845787 0.099593 0.5
361 1 0.845787 0.149339 0.5
379 1 0.895533 0.000100487 0.5
380 1 0.895533 0.0498467 0.5
381 1 0.895533 0.099593 0.5
382 1 0.895533 0.149339 0.5
400 1 0.945279 0.000100487 0.5
401 1 0.945279 0.0498467 0.5
402 1 0.945279 0.099593 0.5
403 1 0.945279 0.149339 0.5
421 1 0.995025 0.000100487 0.5
422 1 0.995025 0.0498467 0.5
423 1 0.995025 0.099593 0.5
424 1 0.995025 0.149339 0.5
624 2 0.860357 0.163909 0.5
627 2 0.910103 0.0644169 0.5
628 2 0.910103 0.163909 0.5
1208 2 0.910103 0.0146707 0.5
1209 2 0.880963 0.0352766 0.5
1210 2 0.860357 0.0146707 0.5
1221 2 0.860357 0.114163 0.5
1222 2 0.860357 0.0644169 0.5
1223 2 0.880963 0.0850228 0.5
1227 2 0.959849 0.163909 0.5
1231 2 0.980455 0.134769 0.5
1232 2 0.959849 0.114163 0.5
1233 2 0.930709 0.134769 0.5
1234 2 0.910103 0.114163 0.5
1235 2 0.880963 0.134769 0.5
1236 2 0.959849 0.0644169 0.5
1237 2 0.930709 0.0850228 0.5
1238 2 0.959849 0.0146707 0.5
1239 2 0.930709 0.0352766 0.5
1240 2 0.980455 0.0850228 0.5
1241 2 0.980455 0.0352766 0.5
5 1 0.000100487 0.199085 0.5
6 1 0.000100487 0.248832 0.5
7 1 0.000100487 0.298578 0.5
26 1 0.0498467 0.199085 0.5
27 1 0.0498467 0.248832 0.5
28 1 0.0498467 0.298578 0.5
47 1 0.099593 0.199085 0.5
48 1 0.099593 0.248832 0.5
49 1 0.099593 0.298578 0.5
68 1 0.149339 0.199085 0.5
69 1 0.149339 0.248832 0.5
70 1 0.149339 0.298578 0.5
454 2 0.163909 0.213656 0.5
483 2 0.0352766 0.234262 0.5
488 2 0.0850228 0.184515 0.5
509 2 0.0352766 0.284008 0.5
511 2 0.114163 0.213656 0.5
513 2 0.0146707 0.313148 0.5
639 2 0.0644169 0.213656 0.5
641 2 0.0352766 0.184515 0.5
648 2 0.134769 0.184515 0.5
749 2 0.163909 0.313148 0.5
756 2 0.163909 0.263402 0.5
758 2 0.134769 0.284008 0.5
759 2 0.134769 0.234262 0.5
762 2 0.0644169 0.313148 0.5
763 2 0.0850228 0.234262 0.5
764 2 0.114163 0.263402 0.5
765 2 0.0850228 0.284008 0.5
766 2 0.0146707 0.213656 0.5
767 2 0.0146707 0.263402 0.5
770 2 0.0644169 0.263402 0.5
774 2 0.114163 0.313148 0.5
89 1 0.199085 0.199085 0.5
90 1 0.199085 0.248832 0.5
91 1 0.199085 0.298578 0.5
110 1 0.248832 0.199085 0.5
111 1 0.248832 0.248832 0.5
112 1 0.248832 0.298578 0.5
131 1 0.298578 0.199085 0.5
132 1 0.298578 0.248832 0.5
133 1 0.298578 0.298578 0.5
485 2 0.213656 0.263402 0.5
491 2 0.184515 0.184515 0.5
504 2 0.263402 0.313148 0.5
645 2 0.184515 0.234262 0.5
687 2 0.313148 0.313148 0.5
698 2 0.284008 0.184515 0.5
700 2 0.284008 0.234262 0.5
701 2 0.234262 0.184515 0.5
702 2 0.313148 0.263402 0.5
703 2 0.313148 0.213656 0.5
705 2 0.263402 0.263402 0.5
709 2 0.284008 0.284008 0.5
747 2 0.213656 0.313148 0.5
752 2 0.184515 0.284008 0.5
753 2 0.234262 0.234262 0.5
754 2 0.263402 0.213656 0.5
755 2 0.234262 0.284008 0.5
757 2 0.213656 0.213656 0.5
152 1 0.348324 0.199085 0.5
153 1 0.348324 0.248832 0.5
154 1 0.348324 0.298578 0.5
173 1 0.39807 0.199085 0.5
174 1 0.39807 0.248832 0.5
175 1 0.39807 0.298578 0.5
194 1 0.447817 0.199085 0.5
195 1 0.447817 0.248832 0.5
196 1 0.447817 0.298578 0.5
215 1 0.497563 0.199085 0.5
216 1 0.497563 0.248832 0.5
217 1 0.497563 0.298578 0.5
479 2 0.333754 0.284008 0.5
492 2 0.433247 0.184515 0.5
610 2 0.412641 0.213656 0.5
612 2 0.433247 0.284008 0.5
665 2 0.333754 0.234262 0.5
684 2 0.433247 0.234262 0.5
686 2 0.362894 0.213656 0.5
688 2 0.462387 0.213656 0.5
689 2 0.3835 0.184515 0.5
691 2 0.333754 0.184515 0.5
706 2 0.3835 0.234262 0.5
710 2 0.412641 0.263402 0.5
711 2 0.362894 0.263402 0.5
712 2 0.482993 0.234262 0.5
713 2 0.412641 0.313148 0.5
716 2 0.462387 0.263402 0.5
719 2 0.3835 0.284008 0.5
735 2 0.362894 0.313148 0.5
1133 2 0.482993 0.284008 0.5
1149 2 0.462387 0.313148 0.5
1183 2 0.482993 0.184515 0.5
236 1 0.547309 0.199085 0.5
237 1 0.547309 0.248832 0.5
238 1 0.547309 0.298578 0.5
257 1 0.597055 0.199085 0.5
258 1 0.597055 0.248832 0.5
259 1 0.597055 0.298578 0.5
278 1 0.646802 0.199085 0.5
279 1 0.646802 0.248832 0.5
280 1 0.646802 0.298578 0.5
497 2 0.582485 0.184515 0.5
615 2 0.532739 0.184515 0.5
626 2 0.661372 0.263402 0.5
714 2 0.512133 0.213656 0.5
717 2 0.532739 0.284008 0.5
721 2 0.512133 0.263402 0.5
1131 2 0.611626 0.313148 0.5
1144 2 0.561879 0.313148 0.5
1145 2 0.561879 0.213656 0.5
1147 2 0.561879 0.263402 0.5
1150 2 0.512133 0.313148 0.5
1153 2 0.632231 0.234262 0.5
1154 2 0.661372 0.213656 0.5
1155 2 0.632231 0.284008 0.5
1157 2 0.661372 0.313148 0.5
1173 2 0.582485 0.234262 0.5
1175 2 0.632231 0.184515 0.5
1178 2 0.611626 0.263402 0.5
1179 2 0.582485 0.284008 0.5
1180 2 0.532739 0.234262 0.5
1187 2 0.611626 0.213656 0.5
299 1 0.696548 0.199085 0.5
300 1 0.696548 0.248832 0.5
301 1 0.696548 0.298578 0.5
320 1 0.746294 0.199085 0.5
321 1 0.746294 0.248832 0.5
322 1 0.746294 0.298578 0.5
341 1 0.79604 0.199085 0.5
342 1 0.79604 0.248832 0.5
343 1 0.79604 0.298578 0.5
499 2 0.681978 0.184515 0.5
609 2 0.760864 0.313148 0.5
617 2 0.731724 0.284008 0.5
618 2 0.711118 0.213656 0.5
622 2 0.831216 0.184515 0.5
1108 2 0.810611 0.213656 0.5
1110 2 0.831216 0.234262 0.5
1112 2 0.78147 0.184515 0.5
1113 2 0.831216 0.284008 0.5
1115 2 0.810611 0.263402 0.5
1117 2 0.810611 0.313148 0.5
1156 2 0.760864 0.213656 0.5
1158 2 0.681978 0.284008 0.5
1160 2 0.711118 0.263402 0.5
1162 2 0.711118 0.313148 0.5
1164 2 0.731724 0.234262 0.5
1165 2 0.78147 0.284008 0.5
1167 2 0.760864 0.263402 0.5
1170 2 0.731724 0.184515 0.5
1176 2 0.681978 0.234262 0.5
1216 2 0.78147 0.234262 0.5
362 1 0.845787 0.199085 0.5
363 1 0.845787 0.248832 0.5
364 1 0.845787 0.298578 0.5
383 1 0.895533 0.199085 0.5
384 1 0.895533 0.248832 0.5
385 1 0.895533 0.298578 0.5
404 1 0.945279 0.199085 0.5
405 1 0.945279 0.248832 0.5
406 1 0.945279 0.298578 0.5
425 1 0.995025 0.199085 0.5
426 1 0.995025 0.248832 0.5
427 1 0.995025 0.298578 0.5
625 2 0.930709 0.284008 0.5
629 2 0.860357 0.263402 0.5
1099 2 0.959849 0.263402 0.5
1100 2 0.910103 0.213656 0.5
1101 2 0.860357 0.313148 0.5
1102 2 0.980455 0.284008 0.5
1103 2 0.910103 0.263402 0.5
1104 2 0.959849 0.313148 0.5
1109 2 0.880963 0.284008 0.5
1111 2 0.880963 0.234262 0.5
1118 2 0.910103 0.313148 0.5
1217 2 0.860357 0.213656 0.5
1224 2 0.930709 0.184515 0.5
1225 2 0.880963 0.184515 0.5
1226 2 0.959849 0.213656 0.5
1228 2 0.930709 0.234262 0.5
1229 2 0.980455 0.234262 0.5
1230 2 0.980455 0.184515 0.5
8 1 0.000100487 0.348324 0.5
9 1 0.000100487 0.39807 0.5
10 1 0.000100487 0.447817 0.5
11 1 0.000100487 0.497563 0.5
29 1 0.0498467 0.348324 0.5
30 1 0.0498467 0.39807 0.5
31 1 0.0498467 0.447817 0.5
32 1 0.0498467 0.497563 0.5
50 1 0.099593 0.348324 0.5
51 1 0.099593 0.39807 0.5
52 1 0.099593 0.447817 0.5
53 1 0.099593 0.497563 0.5
71 1 0.149339 0.348324 0.5
72 1 0.149339 0.39807 0.5
73 1 0.149339 0.447817 0.5
74 1 0.149339 0.497563 0.5
453 2 0.134769 0.333754 0.5
459 2 0.134769 0.482993 0.5
512 2 0.163909 0.412641 0.5
514 2 0.0146707 0.462387 0.5
516 2 0.0352766 0.3835 0.5
517 2 0.0352766 0.433247 0.5
744 2 0.0850228 0.433247 0.5
746 2 0.134769 0.433247 0.5
748 2 0.134769 0.3835 0.5
751 2 0.163909 0.362894 0.5
768 2 0.0146707 0.362894 0.5
769 2 0.0352766 0.333754 0.5
771 2 0.0644169 0.362894 0.5
772 2 0.114163 0.462387 0.5
773 2 0.0850228 0.333754 0.5
775 2 0.0850228 0.3835 0.5
776 2 0.114163 0.362894 0.5
777 2 0.0644169 0.462387 0.5
778 2 0.114163 0.412641 0.5
779 2 0.0146707 0.412641 0.5
780 2 0.0352766 0.482993 0.5
781 2 0.0644169 0.412641 0.5
783 2 0.0850228 0.482993 0.5
792 2 0.163909 0.462387 0.5
92 1 0.199085 0.348324 0.5
93 1 0.199085 0.39807 0.5
94 1 0.199085 0.447817 0.5
95 1 0.199085 0.497563 0.5
113 1 0.248832 0.348324 0.5
114 1 0.248832 0.39807 0.5
115 1 0.248832 0.447817 0.5
116 1 0.248832 0.497563 0.5
134 1 0.298578 0.348324 0.5
135 1 0.298578 0.39807 0.5
136 1 0.298578 0.447817 0.5
137 1 0.298578 0.497563 0.5
460 2 0.313148 0.412641 0.5
493 2 0.213656 0.362894 0.5
501 2 0.313148 0.362894 0.5
510 2 0.184515 0.433247 0.5
518 2 0.263402 0.462387 0.5
704 2 0.234262 0.333754 0.5
708 2 0.284008 0.333754 0.5
732 2 0.284008 0.3835 0.5
736 2 0.234262 0.433247 0.5
737 2 0.263402 0.362894 0.5
738 2 0.213656 0.462387 0.5
739 2 0.263402 0.412641 0.5
741 2 0.284008 0.433247 0.5
743 2 0.234262 0.3835 0.5
745 2 0.184515 0.482993 0.5
750 2 0.213656 0.412641 0.5
760 2 0.184515 0.3835 0.5
761 2 0.184515 0.333754 0.5
795 2 0.234262 0.482993 0.5
917 2 0.313148 0.462387 0.5
921 2 0.284008 0.482993 0.5
155 1 0.348324 0.348324 0.5
156 1 0.348324 0.39807 0.5
157 1 0.348324 0.447817 0.5
158 1 0.348324 0.497563 0.5
176 1 0.39807 0.348324 0.5
177 1 0.39807 0.39807 0.5
178 1 0.39807 0.447817 0.5
179 1 0.39807 0.497563 0.5
197 1 0.447817 0.348324 0.5
198 1 0.447817 0.39807 0.5
199 1 0.447817 0.447817 0.5
200 1 0.447817 0.497563 0.5
218 1 0.497563 0.348324 0.5
219 1 0.497563 0.39807 0.5
220 1 0.497563 0.447817 0.5
221 1 0.497563 0.497563 0.5
448 2 0.412641 0.412641 0.5
502 2 0.462387 0.412641 0.5
507 2 0.412641 0.362894 0.5
533 2 0.3835 0.482993 0.5
551 2 0.362894 0.462387 0.5
707 2 0.362894 0.362894 0.5
718 2 0.3835 0.333754 0.5
720 2 0.433247 0.333754 0.5
722 2 0.333754 0.3835 0.5
723 2 0.3835 0.3835 0.5
724 2 0.433247 0.3835 0.5
725 2 0.362894 0.412641 0.5
726 2 0.462387 0.362894 0.5
727 2 0.462387 0.462387 0.5
729 2 0.3835 0.433247 0.5
730 2 0.433247 0.482993 0.5
731 2 0.433247 0.433247 0.5
733 2 0.333754 0.433247 0.5
734 2 0.333754 0.333754 0.5
740 2 0.333754 0.482993 0.5
924 2 0.412641 0.462387 0.5
929 2 0.482993 0.482993 0.5
942 2 0.482993 0.433247 0.5
1140 2 0.482993 0.3835 0.5
1151 2 0.482993 0.333754 0.5
239 1 0.547309 0.348324 0.5
240 1 0.547309 0.39807 0.5
241 1 0.547309 0.447817 0.5
242 1 0.547309 0.497563 0.5
260 1 0.597055 0.348324 0.5
261 1 0.597055 0.39807 0.5
262 1 0.597055 0.447817 0.5
263 1 0.597055 0.497563 0.5
281 1 0.646802 0.348324 0.5
282 1 0.646802 0.39807 0.5
283 1 0.646802 0.447817 0.5
284 1 0.646802 0.497563 0.5
604 2 0.632231 0.3835 0.5
606 2 0.582485 0.3835 0.5
715 2 0.561879 0.412641 0.5
936 2 0.512133 0.462387 0.5
938 2 0.532739 0.482993 0.5
945 2 0.561879 0.462387 0.5
947 2 0.582485 0.433247 0.5
952 2 0.632231 0.482993 0.5
953 2 0.661372 0.462387 0.5
1130 2 0.661372 0.362894 0.5
1132 2 0.611626 0.412641 0.5
1134 2 0.661372 0.412641 0.5
1135 2 0.632231 0.433247 0.5
1136 2 0.611626 0.462387 0.5
1137 2 0.582485 0.482993 0.5
1138 2 0.532739 0.3835 0.5
1139 2 0.512133 0.412641 0.5
1141 2 0.611626 0.362894 0.5
1142 2 0.532739 0.433247 0.5
1143 2 0.561879 0.362894 0.5
1146 2 0.532739 0.333754 0.5
1148 2 0.512133 0.362894 0.5
1152 2 0.582485 0.333754 0.5
1159 2 0.632231 0.333754 0.5
302 1 0.696548 0.348324 0.5
303 1 0.696548 0.39807 0.5
304 1 0.696548 0.447817 0.5
305 1 0.696548 0.497563 0.5
323 1 0.746294 0.348324 0.5
324 1 0.746294 0.39807 0.5
325 1 0.746294 0.447817 0.5
326 1 0.746294 0.497563 0.5
344 1 0.79604 0.348324 0.5
345 1 0.79604 0.39807 0.5
346 1 0.79604 0.447817 0.5
347 1 0.79604 0.497563 0.5
555 2 0.831216 0.482993 0.5
605 2 0.731724 0.433247 0.5
616 2 0.831216 0.333754 0.5
619 2 0.831216 0.3835 0.5
946 2 0.711118 0.462387 0.5
949 2 0.810611 0.412641 0.5
951 2 0.681978 0.433247 0.5
1071 2 0.760864 0.462387 0.5
1073 2 0.731724 0.482993 0.5
1074 2 0.760864 0.412641 0.5
1075 2 0.78147 0.433247 0.5
1107 2 0.78147 0.3835 0.5
1114 2 0.78147 0.333754 0.5
1116 2 0.760864 0.362894 0.5
1122 2 0.810611 0.362894 0.5
1123 2 0.831216 0.433247 0.5
1124 2 0.810611 0.462387 0.5
1125 2 0.78147 0.482993 0.5
1126 2 0.681978 0.482993 0.5
1127 2 0.711118 0.412641 0.5
1128 2 0.731724 0.3835 0.5
1129 2 0.681978 0.333754 0.5
1161 2 0.681978 0.3835 0.5
1163 2 0.711118 0.362894 0.5
1166 2 0.731724 0.333754 0.5
365 1 0.845787 0.348324 0.5
366 1 0.845787 0.39807 0.5
367 1 0.845787 0.447817 0.5
368 1 0.845787 0.497563 0.5
386 1 0.895533 0.348324 0.5
387 1 0.895533 0.39807 0.5
388 1 0.895533 0.447817 0.5
389 1 0.895533 0.497563 0.5
407 1 0.945279 0.348324 0.5
408 1 0.945279 0.39807 0.5
409 1 0.945279 0.447817 0.5
410 1 0.945279 0.497563 0.5
428 1 0.995025 0.348324 0.5
429 1 0.995025 0.39807 0.5
430 1 0.995025 0.447817 0.5
431 1 0.995025 0.497563 0.5
595 2 0.959849 0.412641 0.5
598 2 0.930709 0.482993 0.5
1072 2 0.860357 0.462387 0.5
1076 2 0.860357 0.362894 0.5
1079 2 0.910103 0.462387 0.5
1088 2 0.980455 0.482993 0.5
1089 2 0.910103 0.362894 0.5
1090 2 0.959849 0.462387 0.5
1091 2 0.880963 0.482993 0.5
1092 2 0.860357 0.412641 0.5
1093 2 0.959849 0.362894 0.5
1094 2 0.880963 0.3835 0.5
1095 2 0.980455 0.3835 0.5
1096 2 0.930709 0.433247 0.5
1097 2 0.980455 0.433247 0.5
1098 2 0.980455 0.333754 0.5
1105 2 0.930709 0.333754 0.5
1106 2 0.880963 0.333754 0.5
1119 2 0.930709 0.3835 0.5
1120 2 0.910103 0.412641 0.5
1121 2 0.880963 0.433247 0.5
12 1 0.000100487 0.547309 0.5
13 1 0.000100487 0.597055 0.5
14 1 0.000100487 0.646802 0.5
33 1 0.0498467 0.547309 0.5
34 1 0.0498467 0.597055 0.5
35 1 0.0498467 0.646802 0.5
54 1 0.099593 0.547309 0.5
55 1 0.099593 0.597055 0.5
56 1 0.099593 0.646802 0.5
75 1 0.149339 0.547309 0.5
76 1 0.149339 0.597055 0.5
77 1 0.149339 0.646802 0.5
444 2 0.0146707 0.661372 0.5
455 2 0.0644169 0.512133 0.5
508 2 0.0644169 0.561879 0.5
515 2 0.0146707 0.512133 0.5
519 2 0.0146707 0.611626 0.5
521 2 0.0352766 0.532739 0.5
522 2 0.0644169 0.611626 0.5
523 2 0.0146707 0.561879 0.5
532 2 0.163909 0.661372 0.5
742 2 0.163909 0.512133 0.5
782 2 0.114163 0.561879 0.5
784 2 0.0850228 0.532739 0.5
785 2 0.0352766 0.582485 0.5
786 2 0.114163 0.611626 0.5
787 2 0.0850228 0.632231 0.5
788 2 0.114163 0.512133 0.5
789 2 0.0850228 0.582485 0.5
791 2 0.134769 0.582485 0.5
793 2 0.134769 0.532739 0.5
798 2 0.163909 0.561879 0.5
800 2 0.134769 0.632231 0.5
801 2 0.163909 0.611626 0.5
803 2 0.114163 0.661372 0.5
817 2 0.0352766 0.632231 0.5
820 2 0.0644169 0.661372 0.5
96 1 0.199085 0.547309 0.5
97 1 0.199085 0.597055 0.5
98 1 0.199085 0.646802 0.5
117 1 0.248832 0.547309 0.5
118 1 0.248832 0.597055 0.5
119 1 0.248832 0.646802 0.5
138 1 0.298578 0.547309 0.5
139 1 0.298578 0.597055 0.5
140 1 0.298578 0.646802 0.5
505 2 0.313148 0.512133 0.5
528 2 0.213656 0.661372 0.5
535 2 0.263402 0.611626 0.5
544 2 0.213656 0.611626 0.5
548 2 0.234262 0.582485 0.5
549 2 0.313148 0.661372 0.5
552 2 0.313148 0.611626 0.5
790 2 0.184515 0.532739 0.5
794 2 0.263402 0.561879 0.5
796 2 0.213656 0.512133 0.5
797 2 0.184515 0.582485 0.5
799 2 0.184515 0.632231 0.5
804 2 0.234262 0.632231 0.5
909 2 0.263402 0.661372 0.5
910 2 0.213656 0.561879 0.5
914 2 0.313148 0.561879 0.5
915 2 0.284008 0.632231 0.5
916 2 0.284008 0.582485 0.5
918 2 0.234262 0.532739 0.5
919 2 0.263402 0.512133 0.5
920 2 0.284008 0.532739 0.5
159 1 0.348324 0.547309 0.5
160 1 0.348324 0.597055 0.5
161 1 0.348324 0.646802 0.5
180 1 0.39807 0.547309 0.5
181 1 0.39807 0.597055 0.5
182 1 0.39807 0.646802 0.5
201 1 0.447817 0.547309 0.5
202 1 0.447817 0.597055 0.5
203 1 0.447817 0.646802 0.5
222 1 0.497563 0.547309 0.5
223 1 0.497563 0.597055 0.5
224 1 0.497563 0.646802 0.5
451 2 0.333754 0.632231 0.5
540 2 0.462387 0.561879 0.5
543 2 0.412641 0.611626 0.5
553 2 0.482993 0.582485 0.5
554 2 0.362894 0.611626 0.5
603 2 0.412641 0.561879 0.5
728 2 0.412641 0.512133 0.5
896 2 0.462387 0.661372 0.5
899 2 0.412641 0.661372 0.5
911 2 0.362894 0.512133 0.5
912 2 0.362894 0.661372 0.5
922 2 0.333754 0.532739 0.5
923 2 0.3835 0.632231 0.5
925 2 0.3835 0.532739 0.5
926 2 0.333754 0.582485 0.5
927 2 0.362894 0.561879 0.5
928 2 0.3835 0.582485 0.5
930 2 0.462387 0.611626 0.5
931 2 0.433247 0.632231 0.5
932 2 0.433247 0.582485 0.5
933 2 0.433247 0.532739 0.5
934 2 0.462387 0.512133 0.5
937 2 0.482993 0.532739 0.5
972 2 0.482993 0.632231 0.5
243 1 0.547309 0.547309 0.5
244 1 0.547309 0.597055 0.5
245 1 0.547309 0.646802 0.5
264 1 0.597055 0.547309 0.5
265 1 0.597055 0.597055 0.5
266 1 0.597055 0.646802 0.5
285 1 0.646802 0.547309 0.5
286 1 0.646802 0.597055 0.5
287 1 0.646802 0.646802 0.5
462 2 0.512133 0.561879 0.5
506 2 0.512133 0.512133 0.5
563 2 0.661372 0.661372 0.5
600 2 0.632231 0.582485 0.5
602 2 0.532739 0.632231 0.5
902 2 0.512133 0.611626 0.5
935 2 0.561879 0.512133 0.5
939 2 0.582485 0.582485 0.5
940 2 0.532739 0.582485 0.5
941 2 0.532739 0.532739 0.5
943 2 0.632231 0.532739 0.5
944 2 0.611626 0.561879 0.5
950 2 0.661372 0.512133 0.5
956 2 0.661372 0.561879 0.5
957 2 0.632231 0.632231 0.5
962 2 0.582485 0.632231 0.5
964 2 0.661372 0.611626 0.5
966 2 0.561879 0.561879 0.5
967 2 0.611626 0.611626 0.5
968 2 0.582485 0.532739 0.5
969 2 0.611626 0.512133 0.5
970 2 0.561879 0.611626 0.5
974 2 0.561879 0.661372 0.5
977 2 0.512133 0.661372 0.5
1010 2 0.611626 0.661372 0.5
306 1 0.696548 0.547309 0.5
307 1 0.696548 0.597055 0.5
308 1 0.696548 0.646802 0.5
327 1 0.746294 0.547309 0.5
328 1 0.746294 0.597055 0.5
329 1 0.746294 0.646802 0.5
348 1 0.79604 0.547309 0.5
349 1 0.79604 0.597055 0.5
350 1 0.79604 0.646802 0.5
446 2 0.681978 0.632231 0.5
473 2 0.831216 0.532739 0.5
500 2 0.711118 0.512133 0.5
557 2 0.760864 0.661372 0.5
586 2 0.711118 0.561879 0.5
587 2 0.731724 0.632231 0.5
596 2 0.78147 0.582485 0.5
597 2 0.78147 0.632231 0.5
608 2 0.760864 0.561879 0.5
948 2 0.760864 0.512133 0.5
954 2 0.681978 0.582485 0.5
955 2 0.681978 0.532739 0.5
958 2 0.731724 0.582485 0.5
959 2 0.731724 0.532739 0.5
960 2 0.711118 0.611626 0.5
1056 2 0.810611 0.611626 0.5
1060 2 0.810611 0.661372 0.5
1062 2 0.711118 0.661372 0.5
1064 2 0.760864 0.611626 0.5
1066 2 0.831216 0.632231 0.5
1069 2 0.78147 0.532739 0.5
1070 2 0.810611 0.561879 0.5
1078 2 0.810611 0.512133 0.5
1082 2 0.831216 0.582485 0.5
369 1 0.845787 0.547309 0.5
370 1 0.845787 0.597055 0.5
371 1 0.845787 0.646802 0.5
390 1 0.895533 0.547309 0.5
391 1 0.895533 0.597055 0.5
392 1 0.895533 0.646802 0.5
411 1 0.945279 0.547309 0.5
412 1 0.945279 0.597055 0.5
413 1 0.945279 0.646802 0.5
432 1 0.995025 0.547309 0.5
433 1 0.995025 0.597055 0.5
434 1 0.995025 0.646802 0.5
447 2 0.910103 0.611626 0.5
472 2 0.980455 0.582485 0.5
475 2 0.930709 0.632231 0.5
478 2 0.860357 0.561879 0.5
588 2 0.880963 0.632231 0.5
590 2 0.910103 0.661372 0.5
592 2 0.880963 0.582485 0.5
593 2 0.910103 0.561879 0.5
599 2 0.959849 0.561879 0.5
1051 2 0.959849 0.611626 0.5
1053 2 0.959849 0.661372 0.5
1065 2 0.860357 0.611626 0.5
1067 2 0.860357 0.661372 0.5
1077 2 0.860357 0.512133 0.5
1080 2 0.980455 0.532739 0.5
1081 2 0.880963 0.532739 0.5
1083 2 0.910103 0.512133 0.5
1084 2 0.930709 0.532739 0.5
1085 2 0.980455 0.632231 0.5
1086 2 0.930709 0.582485 0.5
1087 2 0.959849 0.512133 0.5
15 1 0.000100487 0.696548 0.5
16 1 0.000100487 0.746294 0.5
17 1 0.000100487 0.79604 0.5
36 1 0.0498467 0.696548 0.5
37 1 0.0498467 0.746294 0.5
38 1 0.0498467 0.79604 0.5
57 1 0.099593 0.696548 0.5
58 1 0.099593 0.746294 0.5
59 1 0.099593 0.79604 0.5
78 1 0.149339 0.696548 0.5
79 1 0.149339 0.746294 0.5
80 1 0.149339 0.79604 0.5
456 2 0.0644169 0.711118 0.5
461 2 0.0850228 0.78147 0.5
524 2 0.0352766 0.681978 0.5
526 2 0.0850228 0.831216 0.5
527 2 0.0146707 0.810611 0.5
530 2 0.134769 0.681978 0.5
531 2 0.134769 0.78147 0.5
802 2 0.163909 0.711118 0.5
808 2 0.163909 0.760864 0.5
809 2 0.134769 0.731724 0.5
812 2 0.0644169 0.810611 0.5
813 2 0.114163 0.760864 0.5
814 2 0.114163 0.711118 0.5
815 2 0.0850228 0.731724 0.5
816 2 0.0850228 0.681978 0.5
818 2 0.0146707 0.711118 0.5
819 2 0.0352766 0.731724 0.5
821 2 0.0146707 0.760864 0.5
822 2 0.0352766 0.78147 0.5
823 2 0.0352766 0.831216 0.5
824 2 0.0644169 0.760864 0.5
845 2 0.114163 0.810611 0.5
849 2 0.134769 0.831216 0.5
851 2 0.163909 0.810611 0.5
99 1 0.199085 0.696548 0.5
100 1 0.199085 0.746294 0.5
101 1 0.199085 0.79604 0.5
120 1 0.248832 0.696548 0.5
121 1 0.248832 0.746294 0.5
122 1 0.248832 0.79604 0.5
141 1 0.298578 0.696548 0.5
142 1 0.298578 0.746294 0.5
143 1 0.298578 0.79604 0.5
520 2 0.263402 0.711118 0.5
529 2 0.263402 0.810611 0.5
546 2 0.313148 0.760864 0.5
550 2 0.234262 0.731724 0.5
805 2 0.284008 0.681978 0.5
806 2 0.184515 0.731724 0.5
807 2 0.184515 0.681978 0.5
811 2 0.284008 0.831216 0.5
850 2 0.184515 0.78147 0.5
852 2 0.284008 0.731724 0.5
853 2 0.184515 0.831216 0.5
855 2 0.213656 0.810611 0.5
856 2 0.213656 0.760864 0.5
857 2 0.313148 0.810611 0.5
858 2 0.313148 0.711118 0.5
860 2 0.234262 0.831216 0.5
904 2 0.284008 0.78147 0.5
905 2 0.213656 0.711118 0.5
906 2 0.263402 0.760864 0.5
907 2 0.234262 0.78147 0.5
908 2 0.234262 0.681978 0.5
162 1 0.348324 0.696548 0.5
163 1 0.348324 0.746294 0.5
164 1 0.348324 0.79604 0.5
183 1 0.39807 0.696548 0.5
184 1 0.39807 0.746294 0.5
185 1 0.39807 0.79604 0.5
204 1 0.447817 0.696548 0.5
205 1 0.447817 0.746294 0.5
206 1 0.447817 0.79604 0.5
225 1 0.497563 0.696548 0.5
226 1 0.497563 0.746294 0.5
227 1 0.497563 0.79604 0.5
442 2 0.412641 0.760864 0.5
450 2 0.482993 0.78147 0.5
464 2 0.362894 0.760864 0.5
534 2 0.333754 0.78147 0.5
536 2 0.3835 0.831216 0.5
542 2 0.3835 0.78147 0.5
545 2 0.333754 0.681978 0.5
547 2 0.3835 0.681978 0.5
558 2 0.462387 0.711118 0.5
601 2 0.482993 0.731724 0.5
854 2 0.333754 0.831216 0.5
888 2 0.433247 0.831216 0.5
889 2 0.362894 0.810611 0.5
890 2 0.412641 0.810611 0.5
892 2 0.462387 0.810611 0.5
894 2 0.462387 0.760864 0.5
895 2 0.433247 0.78147 0.5
897 2 0.433247 0.681978 0.5
898 2 0.362894 0.711118 0.5
900 2 0.3835 0.731724 0.5
901 2 0.412641 0.711118 0.5
903 2 0.433247 0.731724 0.5
913 2 0.333754 0.731724 0.5
976 2 0.482993 0.681978 0.5
983 2 0.482993 0.831216 0.5
246 1 0.547309 0.696548 0.5
247 1 0.547309 0.746294 0.5
248 1 0.547309 0.79604 0.5
267 1 0.597055 0.696548 0.5
268 1 0.597055 0.746294 0.5
269 1 0.597055 0.79604 0.5
288 1 0.646802 0.696548 0.5
289 1 0.646802 0.746294 0.5
290 1 0.646802 0.79604 0.5
463 2 0.512133 0.810611 0.5
474 2 0.661372 0.760864 0.5
503 2 0.661372 0.711118 0.5
541 2 0.561879 0.760864 0.5
560 2 0.561879 0.810611 0.5
564 2 0.532739 0.831216 0.5
963 2 0.632231 0.731724 0.5
965 2 0.632231 0.681978 0.5
971 2 0.512133 0.711118 0.5
973 2 0.532739 0.681978 0.5
975 2 0.611626 0.711118 0.5
978 2 0.582485 0.731724 0.5
979 2 0.632231 0.78147 0.5
980 2 0.532739 0.78147 0.5
981 2 0.611626 0.760864 0.5
982 2 0.512133 0.760864 0.5
984 2 0.532739 0.731724 0.5
985 2 0.561879 0.711118 0.5
992 2 0.582485 0.78147 0.5
994 2 0.582485 0.831216 0.5
995 2 0.611626 0.810611 0.5
1005 2 0.632231 0.831216 0.5
1008 2 0.661372 0.810611 0.5
1009 2 0.582485 0.681978 0.5
309 1 0.696548 0.696548 0.5
310 1 0.696548 0.746294 0.5
311 1 0.696548 0.79604 0.5
330 1 0.746294 0.696548 0.5
331 1 0.746294 0.746294 0.5
332 1 0.746294 0.79604 0.5
351 1 0.79604 0.696548 0.5
352 1 0.79604 0.746294 0.5
353 1 0.79604 0.79604 0.5
445 2 0.810611 0.810611 0.5
469 2 0.831216 0.831216 0.5
559 2 0.681978 0.731724 0.5
571 2 0.760864 0.810611 0.5
583 2 0.78147 0.831216 0.5
589 2 0.760864 0.760864 0.5
591 2 0.831216 0.731724 0.5
961 2 0.681978 0.681978 0.5
1003 2 0.731724 0.78147 0.5
1006 2 0.711118 0.760864 0.5
1011 2 0.711118 0.711118 0.5
1012 2 0.711118 0.810611 0.5
1013 2 0.681978 0.831216 0.5
1014 2 0.681978 0.78147 0.5
1015 2 0.78147 0.681978 0.5
1016 2 0.831216 0.681978 0.5
1017 2 0.760864 0.711118 0.5
1018 2 0.831216 0.78147 0.5
1022 2 0.731724 0.831216 0.5
1023 2 0.78147 0.78147 0.5
1024 2 0.810611 0.760864 0.5
1055 2 0.810611 0.711118 0.5
1059 2 0.78147 0.731724 0.5
1061 2 0.731724 0.731724 0.5
1063 2 0.731724 0.681978 0.5
372 1 0.845787 0.696548 0.5
373 1 0.845787 0.746294 0.5
374 1 0.845787 0.79604 0.5
393 1 0.895533 0.696548 0.5
394 1 0.895533 0.746294 0.5
395 1 0.895533 0.79604 0.5
414 1 0.945279 0.696548 0.5
415 1 0.945279 0.746294 0.5
416 1 0.945279 0.79604 0.5
435 1 0.995025 0.696548 0.5
436 1 0.995025 0.746294 0.5
437 1 0.995025 0.79604 0.5
443 2 0.959849 0.760864 0.5
470 2 0.980455 0.831216 0.5
471 2 0.880963 0.78147 0.5
476 2 0.930709 0.78147 0.5
556 2 0.880963 0.681978 0.5
573 2 0.880963 0.831216 0.5
579 2 0.930709 0.831216 0.5
582 2 0.860357 0.760864 0.5
584 2 0.959849 0.711118 0.5
585 2 0.930709 0.731724 0.5
1040 2 0.959849 0.810611 0.5
1042 2 0.860357 0.810611 0.5
1045 2 0.910103 0.760864 0.5
1046 2 0.910103 0.810611 0.5
1049 2 0.980455 0.78147 0.5
1050 2 0.980455 0.731724 0.5
1052 2 0.980455 0.681978 0.5
1054 2 0.930709 0.681978 0.5
1057 2 0.910103 0.711118 0.5
1058 2 0.880963 0.731724 0.5
1068 2 0.860357 0.711118 0.5
18 1 0.000100487 0.845787 0.5
19 1 0.000100487 0.895533 0.5
20 1 0.000100487 0.945279 0.5
21 1 0.000100487 0.995025 0.5
39 1 0.0498467 0.845787 0.5
40 1 0.0498467 0.895533 0.5
41 1 0.0498467 0.945279 0.5
42 1 0.0498467 0.995025 0.5
60 1 0.099593 0.845787 0.5
61 1 0.099593 0.895533 0.5
62 1 0.099593 0.945279 0.5
63 1 0.099593 0.995025 0.5
81 1 0.149339 0.845787 0.5
82 1 0.149339 0.895533 0.5
83 1 0.149339 0.945279 0.5
84 1 0.149339 0.995025 0.5
458 2 0.0146707 0.860357 0.5